<?xml version="1.0"?>
<VTKFile type="UnstructuredGrid"  version="0.1"  >
<UnstructuredGrid>
<Piece  NumberOfPoints="946" NumberOfCells="1750">
<Points>
<DataArray  type="Float64"  NumberOfComponents="3"  format="ascii">0 0.32 0  0 0 0  0.32 0 0  0.32 0.32 0  0.1724697960371747 0.1756366296493606 0  0.18 0.16 0  0.1724697960371747 0.1443633703506394 0  0.1555495813208737 0.1405014417563635 0  0.1419806226419516 0.1513223252176489 0  0.1419806226419516 0.1686776747823512 0  0.1555495813208737 0.1794985582436365 0  0.16 0 0  0.16 0.32 0  0 0.16 0  0.32 0.16 0  0 0.08 0  0.08 0.32 0  0.24 0.32 0  0.24 0 0  0.08 0 0  0 0.24 0  0.32 0.24 0  0.32 0.08 0  0.08592694963409589 0.2340730503659041 0  0.09723504067071323 0.08129523040606182 0  0.2485025301576233 0.2026205722241592 0  0.2485025301576233 0.1173794277758408 0  0.2 0.2581048886844819 0  0.1889605763553961 0.07021869017888714 0  0.07050285765800089 0.1476856419406569 0  0.2626424772744647 0.05735752272553532 0  0.2626424772744647 0.2626424772744647 0  0.1447816072330593 0.2374587553936669 0  0.04282408530903833 0.1971982211732629 0  0.04554450825441596 0.274455491745584 0  0.04903857218397407 0.04903857218397407 0  0.1128614872866735 0.2790987887082096 0  0.1399110114534574 0.04936689070262287 0  0.04941155347517124 0.1006161223016224 0  0.1496355911200375 0.0946072201431459 0  0.08687797064841728 0.1893325936267797 0  0.1836223425053792 0.2177429030315346 0  0.2 0 0  0.2217133382095595 0.04036678728721604 0  0.2715479262003908 0.16 0  0.32 0.12 0  0.32 0.2 0  0.2257739631001954 0.1627902633269421 0  0.1548967849624807 0.2782673419161616 0  0.0897006148708142 0.0404179931418645 0  0.107538280723678 0.1240209224048331 0  0.32 0.28 0  0.28 0.32 0  0.28 0 0  0.32 0.04 0  0.12 0 0  0.2039516700139062 0.1124591387402015 0  0.2849362927476249 0.22 0  0.2815293561446764 0.09348338480500666 0  0.2290792109707285 0.08041572628450755 0  0 0.28 0  0.04 0 0  0 0.04 0  0.04 0.32 0  0.12 0.32 0  0 0.12 0  0 0.2 0  0.2 0.32 0  0.04719239175293644 0.2357209338644246 0  0.18 0.03283282817802983 0  0.03459455113972755 0.1355155925219071 0  0.1167014944289527 0.2123468703682496 0  0.2198744590138257 0.2265366732600708 0  0.22 0.2890524443422409 0  0.204081763862146 0.1897937798179363 0  0.1071913724951102 0.1598347996150203 0  0.07978667269432378 0.2683152148058119 0  0.2860006368556086 0.1281615518882406 0  0.186506813499601 0.2893436424803662 0  0.2957739631001954 0.18 0  0.2316392291974886 0.2559837485353675 0  0.08021152966146175 0.1080055778168626 0  0.04441635849044757 0.1655954885374045 0  0.2947472697415967 0.06 0  0.2809249018017093 0.03158502010102351 0  0.26 0.2947472697415967 0  0.2884149798989765 0.2809249018017093 0  0.256672484859172 0.2323723914348942 0  0.2908214501123729 0.2502257334219019 0  0.2503210177196378 0.0292461423914427 0  0.02274573338381435 0.2189840478351313 0  0.1146826902677404 0.2474403078334797 0  0.1549462522594421 0.2093668180708425 0  0.1732625345983658 0.2454503644695569 0  0.07356656116298999 0.06452478082392021 0  0.06 0.02166594954719355 0  0.02166594954719355 0.06 0  0.1734153914003583 0.1138117780191064 0  0.02507614891476611 0.2541823748781176 0  0.06 0.2993250213261375 0  0.06567558499903407 0.2141159911915144 0  0.02763189511653209 0.02763189511653209 0  0.02494278260213273 0.2950572173978673 0  0.02004107171922797 0.18 0  0.2040501927894317 0.1423127791726191 0  0.1342304189892925 0.2964428064380718 0  0.1264926394567253 0.07591655272147446 0  0.2543666497519227 0.09071297109131458 0  0.02066198166129594 0.09999999999999999 0  0.1193780959095975 0.1847449346103752 0  0.160707918728762 0.06856184922550096 0  0.1538361108697094 0.02626258941247167 0  0.1175132179179275 0.02970175887161365 0  0.0896696062032081 0.2941172561602701 0  0.2742022309114764 0.1956235056735056 0  0.1239726595290947 0.1027100530571546 0  0.1335321747236177 0.1268103968792302 0  0.0499122293755764 0.07482237802140228 0  0.05819517943340596 0.1249404255334794 0  0.1081048626795913 0.05815873733743208 0  0.2248578566005799 0.1273171270776257 0  0.24768366274106 0.1453629293907381 0  0.1335968186922031 0.2644099964611069 0  0.32 0.3 0  0.3 0 0  0.06838889217592001 0.1725595603616699 0  0.249528960907333 0.175634842925295 0  0.2957739631001954 0.1553274784032326 0  0.2432967628691654 0.2772113171931903 0  0.1 0 0  0.2285610480410538 0.1883496915259968 0  0.225862132811426 0.1037668452078331 0  0.1736647625837365 0.08933247239824846 0  0.2993357267411931 0.1088148332367623 0  0.06713304658544594 0.2483745599733024 0  0.2026319410419582 0.1655790431588157 0  0.1760454911649975 0.2685554316255279 0  0.2030646762555508 0.02437471496075827 0  0.1988426812689453 0.0481673813828579 0  0.06945679754014131 0.08740101528473335 0  0.2057895491051014 0.08802649077812591 0  0.02307454549766386 0.1559206264272182 0  0.09329384086143681 0.2118493079368139 0  0.32 0.02 0  0.3 0.32 0  0.2418180309509497 0.04972906552246815 0  0.2302207815392449 0.01989532858742843 0  0.2116344848513204 0.06647287865702114 0  0.1015892528441933 0.1028503701787078 0  0.08548766811813724 0.130324271542442 0  0.1738888468295897 0.1977908758126339 0  0.1935153544470194 0.2372323905166999 0  0.1392024294186467 0.1941085745700379 0  0.162651402101493 0.04653830057657955 0  0.32 0.14 0  0.14 0 0  0 0.14 0  0.1218842618250836 0.1445369596787718 0  0.1547601880217414 0.2566432880075177 0  0.1656836023729501 0.2981266407595233 0  0.2646393387843483 0.1318553631182043 0  0.1520499682577364 0.1159424452913679 0  0.2689297159791842 0.1108406489128158 0  0.1873636572369935 0.1295339172313182 0  0.09821523099961101 0.02106645239750845 0  0.32 0.26 0  0.26 0 0  0.06642766578995243 0.1932983019411901 0  0.06857514007504398 0.04098095895828512 0  0.1103349978846541 0.3006132884839174 0  0.2946603593012491 0.2011664669614786 0  0.32 0.22 0  0.02027338666475766 0.2746043432734399 0  0.08864594687181412 0.1688068735898821 0  0.2775521174991735 0.07256268190182383 0  0.2987245083870996 0.08092070290318283 0  0.29 0.3017098912883955 0  0.2990320584978097 0.02096794150219029 0  0.2463492345359834 0.06959752019395787 0  0.2654773796189959 0.2140170394956884 0  0.18 0.32 0  0.09448372467937338 0.2532790612142212 0  0.1654350081562182 0.2267331611237137 0  0.2390335305373426 0.2986882615662559 0  0.3010101635301376 0.23255611418048 0  0.02003796083959144 0.07997173818442301 0  0 0.26 0  0.26 0.32 0  0.14 0.32 0  0.32 0.18 0  0.18 0 0  0 0.18 0  0.02 0.32 0  0.06 0.32 0  0.02 0 0  0 0.02 0  0 0.06 0  0.06 0 0  0.32 0.06 0  0 0.1 0  0.32 0.1 0  0.1 0.32 0  0.22 0 0  0 0.22 0  0.22 0.32 0  0 0.3 0  0.2043421036647595 0.2114473072800954 0  0.300117648281859 0.0408383263955461 0  0.2291682622510221 0.2085693000594399 0  0.02331022920862044 0.1993590370199751 0  0.04453044781284336 0.2550100187156381 0  0.04636640422114097 0.2163055674940632 0  0.08995604327016558 0.1493284521149021 0  0.2717478216285072 0.2451229270283992 0  0.1364232887077637 0.2185494929154821 0  0.07915250788508797 0.02422788742839905 0  0.03472244994099317 0.1149747875019265 0  0.1881779249453643 0.1017212412629791 0  0.01629165131922304 0.13 0  0.05209312411501219 0.1429448284101649 0  0.27 0.01609888122449058 0  0.3039011187755094 0.27 0  0.1056238252768235 0.2293143964959702 0  0.1044627782577052 0.1964944317792064 0  0.2112701179000619 0.2431599299511939 0  0.2371212790876119 0.23671986301665 0  0.134869546612649 0.01947889818358163 0  0.1702155675551379 0.01641641408901492 0  0.3044867772925856 0.29 0  0.2033493055180126 0.300228180312477 0  0.2166404004312849 0.2692872772322697 0  0.07290798518668593 0.2857436989124688 0  0.2501940255004452 0.2493738564802438 0  0.1805656909843765 0.05138168584494279 0  0.2031885809093209 0.2817418694837987 0  0.126943846361485 0.2340415326991557 0  0.3016843660072632 0.1378601179494526 0  0.2432065803494023 0.2198019477365854 0  0.03526793991462475 0.08952106974268711 0  0.1238589168862487 0.1671166860068179 0  0.2678983466055256 0.1781825687576463 0  0.2294665867144854 0.1449465024797043 0  0.05241044282339787 0.1818397416523924 0  0.04190629215957274 0.3018330391379935 0  0.02887443061886286 0.2362545879838862 0  0.09026557776125285 0.05824855596855569 0  0.1425531876736484 0.06736796104555459 0  0.281258687686961 0.1452085445853389 0  0.06166887543044805 0.2658270241044786 0  0.0951811906092474 0.277212412368241 0  0.1901744098194098 0.1784756914389974 0  0.1039769766529694 0.176843478198491 0  0.2261613818501348 0.05708268777249097 0  0.2157253214460238 0.1768176711861203 0  0.06885727120598739 0.2311409195507396 0  0.1126970106765598 0.08938921221039026 0  0.1877650755960391 0.01575214545037394 0  0.1495343544382765 0.3051797309312216 0  0.1902096743087982 0.2021790745381279 0  0.1253677941704219 0.05868235130887398 0  0.04509298838583223 0.03157747891467392 0  0.01772036574905172 0.04253890673069985 0  0.07876113846871613 0.2041663032253892 0  0.03614403721077862 0.1823576960570648 0  0.1050364490326094 0.1410441274755502 0  0.2788872943911097 0.05634094276455664 0  0.2594570428975347 0.2785414355164178 0  0.2735255936753959 0.3045813873480002 0  0.1639196831229942 0.1267798746896278 0  0.1294351075605798 0.2805149851885643 0  0.3035185360020085 0.2157116223141066 0  0.03389947159096717 0.04328314133748964 0  0.03936853269570236 0.01630129845673227 0  0.03388070554864334 0.07104790276482686 0  0.1082226788187749 0.262950309896791 0  0.08510328240440572 0.09234323992826286 0  0.06518897037110931 0.102737689748031 0  0.09357600397071598 0.1165232609468263 0  0.1884521987832472 0.1462981432167217 0  0.03817336953374532 0.1509904983167882 0  0.05925563603591531 0.1592565609525878 0  0.2649208252312628 0.03960291227259964 0  0.2734048808233756 0.286186142557552 0  0.2804430131292209 0.2648560847731692 0  0.1890687328560044 0.08598237488905017 0  0.3068981368091278 0.1911977894591457 0  0.3078869815500977 0.17 0  0.285589663580299 0.1676637392016163 0  0.2423127463526093 0.1020402493204296 0  0.2617548918941527 0.07314
[...]
<PointData  Vectors="Displacement"> 
<DataArray  type="Float64"  Name="Displacement"  NumberOfComponents="3" format="ascii">0.0000000000000000e+00 0.0000000000000000e+00 0.0000000000000000e+00  0.0000000000000000e+00 0.0000000000000000e+00 0.0000000000000000e+00  9.6113388889438937e+01 1.2879440012032880e+01 0.0000000000000000e+00  9.6194349792831204e+01 -1.3110170129305018e+01 0.0000000000000000e+00  5.6852854906154633e+01 -3.5891040463572974e+00 0.0000000000000000e+00  6.3893474028633960e+01 -9.1509533063877241e-02 0.0000000000000000e+00  5.6651381312231642e+01 3.1840626316042937e+00 0.0000000000000000e+00  4.4671844789778291e+01 4.9149335408757278e+00 0.0000000000000000e+00  3.4140728601220879e+01 1.3541831060195604e+00 0.0000000000000000e+00  3.3897587123930244e+01 -1.4532267480477512e+00 0.0000000000000000e+00  4.4896575517383994e+01 -5.3362101770368886e+00 0.0000000000000000e+00  4.9189959386771100e+01 1.4931402311577928e+01 0.0000000000000000e+00  4.9254033101408879e+01 -1.5069265122806987e+01 0.0000000000000000e+00  0.0000000000000000e+00 0.0000000000000000e+00 0.0000000000000000e+00  9.8899752265541693e+01 -1.0978440111124389e-01 0.0000000000000000e+00  0.0000000000000000e+00 0.0000000000000000e+00 0.0000000000000000e+00  2.6606387728221627e+01 -1.1711354890124630e+01 0.0000000000000000e+00  7.2273509312302593e+01 -1.4547214915462906e+01 0.0000000000000000e+00  7.2192016378174003e+01 1.4372201544898031e+01 0.0000000000000000e+00  2.6566195738098028e+01 1.1642923518102016e+01 0.0000000000000000e+00  0.0000000000000000e+00 0.0000000000000000e+00 0.0000000000000000e+00  9.7707814704332463e+01 -6.1646994376056705e+00 0.0000000000000000e+00  9.7669447798150770e+01 5.9381797121686395e+00 0.0000000000000000e+00  2.4617332434583936e+01 -4.8336211889923781e+00 0.0000000000000000e+00  2.8296315107154321e+01 5.7366712039177852e+00 0.0000000000000000e+00  7.7115905502587509e+01 -3.6187464714632709e+00 0.0000000000000000e+00  7.7083558433169628e+01 3.4413734086533427e+00 0.0000000000000000e+00  6.0642125891721449e+01 -9.7733980744171731e+00 0.0000000000000000e+00  5.7165610389368808e+01 9.0810627558058759e+00 0.0000000000000000e+00  1.8115766018989614e+01 4.5300992912315591e-01 0.0000000000000000e+00  7.9893484290483599e+01 8.8857507454901583e+00 0.0000000000000000e+00  7.9938258425754171e+01 -9.0794399113123472e+00 0.0000000000000000e+00  4.3390501327987636e+01 -8.0542996515226193e+00 0.0000000000000000e+00  1.1109440625131288e+01 -1.0390568335140302e+00 0.0000000000000000e+00  1.3403194532618475e+01 -4.9136439288013092e+00 0.0000000000000000e+00  1.4347746952528613e+01 4.9692541411922635e+00 0.0000000000000000e+00  3.4412425722335136e+01 -1.0169351739889546e+01 0.0000000000000000e+00  4.2400056669157706e+01 1.0442664533093280e+01 0.0000000000000000e+00  1.3316361537557720e+01 2.1122707451768972e+00 0.0000000000000000e+00  4.4754055954324691e+01 7.2219055870132687e+00 0.0000000000000000e+00  2.3074972291523732e+01 -1.4974610693704127e+00 0.0000000000000000e+00  5.5610476453288797e+01 -6.5493678583352484e+00 0.0000000000000000e+00  6.0510577355162425e+01 1.4961807906706710e+01 0.0000000000000000e+00  6.7186927801519701e+01 1.1176270621083026e+01 0.0000000000000000e+00  8.4651589805187271e+01 -1.0273453257320769e-01 0.0000000000000000e+00  9.8498342236166607e+01 2.7318880656819036e+00 0.0000000000000000e+00  9.8518865179364269e+01 -2.9644513197342039e+00 0.0000000000000000e+00  7.1905798236867312e+01 -2.8512507628899048e-01 0.0000000000000000e+00  4.7098460653466269e+01 -1.1550172921528999e+01 0.0000000000000000e+00  2.7280715250273875e+01 8.8111838574114234e+00 0.0000000000000000e+00  2.9527176929358792e+01 2.2857578690153022e+00 0.0000000000000000e+00  9.6916824319379842e+01 -9.6233322308963238e+00 0.0000000000000000e+00  8.4202820872098840e+01 -1.3834051389399511e+01 0.0000000000000000e+00  8.4120392384651637e+01 1.3628159715123175e+01 0.0000000000000000e+00  9.6859201360408036e+01 9.3940226197104586e+00 0.0000000000000000e+00  3.7983768506079187e+01 1.3862775434919978e+01 0.0000000000000000e+00  6.2795855430596525e+01 4.4355387898455509e+00 0.0000000000000000e+00  8.7638424445621553e+01 -4.9856886580127737e+00 0.0000000000000000e+00  8.6429708289347104e+01 5.3784066329422462e+00 0.0000000000000000e+00  6.9931178513694874e+01 7.2657038228333670e+00 0.0000000000000000e+00  0.0000000000000000e+00 0.0000000000000000e+00 0.0000000000000000e+00  1.4726511208331809e+01 7.9258879288312434e+00 0.0000000000000000e+00  0.0000000000000000e+00 0.0000000000000000e+00 0.0000000000000000e+00  1.4777479891183667e+01 -7.9487396042767307e+00 0.0000000000000000e+00  3.8036381751070209e+01 -1.3958971397716624e+01 0.0000000000000000e+00  0.0000000000000000e+00 0.0000000000000000e+00 0.0000000000000000e+00  0.0000000000000000e+00 0.0000000000000000e+00 0.0000000000000000e+00  6.0580385422114830e+01 -1.5131206337801629e+01 0.0000000000000000e+00  1.3001319558557480e+01 -2.8278807949161808e+00 0.0000000000000000e+00  5.4647290793643414e+01 1.2327945696418531e+01 0.0000000000000000e+00  8.8064434202927888e+00 5.0713191964178750e-01 0.0000000000000000e+00  3.3594439784608682e+01 -4.3518376227509910e+00 0.0000000000000000e+00  6.7331683433856085e+01 -6.2861435546118827e+00 0.0000000000000000e+00  6.6666673697126399e+01 -1.2207346491102724e+01 0.0000000000000000e+00  6.4254599248778987e+01 -2.5081581284552001e+00 0.0000000000000000e+00  2.7032342352181725e+01 -4.3151132041478996e-02 0.0000000000000000e+00  2.3808689431539612e+01 -7.2619136767934238e+00 0.0000000000000000e+00  8.8548448608500635e+01 2.4125577432977137e+00 0.0000000000000000e+00  5.6648666418757784e+01 -1.2639154005110081e+01 0.0000000000000000e+00  9.1625434013128739e+01 -1.6521191923080067e+00 0.0000000000000000e+00  7.0508050756336857e+01 -8.9753982497106737e+00 0.0000000000000000e+00  2.2077386660718208e+01 2.8350305174366377e+00 0.0000000000000000e+00  1.1243099663083635e+01 -1.5151496851548324e-01 0.0000000000000000e+00  8.9668324405659632e+01 8.1188551693168698e+00 0.0000000000000000e+00  8.4966646500099600e+01 1.0857239416456597e+01 0.0000000000000000e+00  7.8630321740859415e+01 -1.1997375922891345e+01 0.0000000000000000e+00  8.7412406330987679e+01 -1.0274383695212714e+01 0.0000000000000000e+00  7.8738768363588477e+01 -6.3612022067389171e+00 0.0000000000000000e+00  8.8732964373789216e+01 -7.5431613799921875e+00 0.0000000000000000e+00  7.5713656393645650e+01 1.1634583583749290e+01 0.0000000000000000e+00  5.9442762463000163e+00 -9.5169854630998618e-01 0.0000000000000000e+00  3.4094412933239077e+01 -7.4983564542333490e+00 0.0000000000000000e+00  4.6284100220413443e+01 -6.5658789938258506e+00 0.0000000000000000e+00  5.2309616847925497e+01 -9.0598976490013232e+00 0.0000000000000000e+00  2.1424605124848860e+01 5.7546984989207504e+00 0.0000000000000000e+00  1.9050124475431442e+01 8.1529237623015973e+00 0.0000000000000000e+00  5.9835918972746027e+00 1.9020635463048186e+00 0.0000000000000000e+00  5.2338604870694795e+01 6.0091905965870973e+00 0.0000000000000000e+00  6.8959212676152628e+00 -2.0287216395913070e+00 0.0000000000000000e+00  1.9135766263243269e+01 -8.2836842203682810e+00 0.0000000000000000e+00  1.7861748271058346e+01 -2.5140408993704564e+00 0.0000000000000000e+00  8.4456520266623532e+00 3.9850789377268359e+00 0.0000000000000000e+00  7.7166430326097446e+00 -3.7915621569550826e+00 0.0000000000000000e+00  5.0213136500987927e+00 -2.3590777737118809e-01 0.0000000000000000e+00  6.5562901759817123e+01 1.0403674514455870e+00 0.0000000000000000e+00  4.1340754352906721e+01 -1.2542983737751182e+01 0.0000000000000000e+00  3.7724663442964108e+01 7.6906072878943093e+00 0.0000000000000000e+00  7.8076338206852199e+01 5.9020179175631755e+00 0.0000000000000000e+00  5.3894912864963702e+00 8.6964816161055647e-01 0.0000000000000000e+00  3.2053309561684834e+01 -1.5772143173218429e+00 0.0000000000000000e+00  4.8465186217852370e+01 9.3312584325070524e+00 0.0000000000000000e+00  4.6996408215703674e+01 1.2689921148310169e+01 0.0000000000000000e+00  3.6139218647392987e+01 1.1261667286395294e+01 0.0000000000000000e+00  2.7939431165397316e+01 -1.0143914191162350e+01 0.0000000000000000e+00  8.4985657542647388e+01 -2.9726025723291052e+00 0.0000000000000000e+00  3.6224806782665361e+01 5.1849384426041061e+00 0.0000000000000000e+00  3.8003978926061926e+01 3.2508382590902225e+00 0.0000000000000000e+00  1.3982036124593010e+01 3.4839773359924178e+00 0.0000000000000000e+00  1.5260749818860855e+01 1.2771155668113556e+00 0.0000000000000000e+00  3.2390217894366643e+01 8.3276755843008132e+00 0.0000000000000000e+00  7.0387873639706626e+01 2.5417989598558055e+00 0.0000000000000000e+00  7.7693438983799055e+01 1.0308698405783590e+00 0.0000000000000000e+00  4.0378839434123719e+01 -9.8176302831276931e+00 0.0000000000000000e+00  9.6553999799272930e+01 -1.1369061537674900e+01 0.0000000000000000e+00  9.0114419367703931e+01 1.3253040435012959e+01 0.0000000000000000e+00  1.7564563006784716e+01 -5.0374861088321821e-01 0.0000000000000000e+00  7.8206232599939497e+01 -1.3089235351602562e+00 0.0000000000000000e+00  9.1735885210150684e+01 2.4913720052242255e-01 0.0000000000000000e+00  7.3825158590470537e+01 -1.0738443313828970e+01 0.0000000000000000e+00  3.2310338632153623e+01 1.2877946762281992e+01 0.0000000000000000e+00  7.1767599506035253e+01 -2.2934419388917942e+00 0.0000000000000000e+00  6.9558971763575769e+01 4.9287774340946244e+00 0.0000000000000000e+00  5.2330687232373158e+01 7.7602268934942860e+00 0.0000000000000000e+00  9.2128036469261971e+01 3.8942367937784739e+00 0.0000000000000000e+00  1.9251551363467364e+01 -4.8536404092096319e+00 0.0000000000000000e+00  6.6383448969903753e+01 -3.0916806199080477e-01 0.0000000000000000e+00  5.3349900901860948e+01 -1.0927289863691431e+01 0.0000000000000000e+00  6.1520911184687783e+01 1.2873676272591680e+01 0.0000000000000000e+00  6.0252877470931438e+01 1.0860833304837325e+01 0.0000000000000000e+00  1.9500503743101703e+01 3.8284663339002170e+00 0.0000000000000000e+00  6.2617881230620505e+01 7.0237285751043972e+00 0.0000000000000000e+00  5.7542732137868384e+00 4.2379042557570377e-02 0.0000000000000000e+00  2.6042934012573205e+01 -3.3090358695791453e+00 0.0000000000000000e+00  9.6485018235129630e+01 1.1138554655705949e+01 0.0000000000000000e+00  9.0195373997234910e+01 -1.3472178713212720e+01 0.0000000000000000e+00  7.3409336616370069e+01 9.9504772403488744e+00 0.0000000000000000e+00  6.9568624992642626e+01 1.2833280071289618e+01 0.0000000000000000e+00  6.4250695236142107e+01 8.9719968830771126e+00 0.0000000000000000e+00  2.8913638693928323e+01 4.0253405163414389e+00 0.0000000000000000e+00  2.2700802191323824e+01 1.4338598796850273e+00 0.0000000000000000e+00  5.2759291239087190e+01 -5.4559121407054336e+00 0.0000000000000000e+00  5.8658008107329785e+01 -7.9991593688952056e+00 0.0000000000000000e+00  4.0152585055736928e+01 -4.1197535294119412e+00 0.0000000000000000e+00  4.9319459425806031e+01 1.1119290370599959e+01 0.0000000000000000e+00  9.8786658780217692e+01 1.2776753583456057e+00 0.0000000000000000e+00  4.3588231660085917e+01 1.4552053002479479e+01 0.0000000000000000e+00  0.0000000000000000e+00 0.0000000000000000e+00 0.0000000000000000e+00  3.1469157400277290e+01 6.4545537258934738e-01 0.0000000000000000e+00  4.6733752305579344e+01 -9.7952912818860529e+00 0.0000000000000000e+00  5.0590966706305281e+01 -1.3341158166264078e+01 0.0000000000000000e+00  8.2311276646562618e+01 2.1577223886419477e+00 0.0000000000000000e+00  4.5220233796462324e+01 5.8971968871298204e+00 0.0000000000000000e+00  8.3055361521790942e+01 3.9478539103358381e+00 0.0000000000000000e+00  5.8440289349909477e+01 3.1323112673503646e+00 0.0000000000000000e+00  3.0708422976590427e+01 1.1007612398697558e+01 0.0000000000000000e+00  9.7298850764449526e+01 -7.8808862550379404e+00 0.0000000000000000e+00  7.8142296914859315e+01 1.4002526997135790e+01 0.0000000000000000e+00  1.7493146346677687e+01 -1.4015627953393417e+00 0.0000000000000000e+00  2.0708080150495945e+01 7.2695668470672210e+00 0.0000000000000000e+00  3.4431432731318687e+01 -1.1895745746194891e+01 0.0000000000000000e+00  9.0963099391023789e+01 -3.3376768797516645e+00 0.0000000000000000e+00  9.8130478293092452e+01 -4.5131923082576320e+00 0.0000000000000000e+00  5.7648271312850117e+00 -2.2499245902648166e+00 0.0000000000000000e+00  2.2735894711234202e+01 -4.1462203275067000e-01 0.0000000000000000e+00  8.4735753694708492e+01 7.2831223953299720e+00 0.0000000000000000e+00  9.1316914563697097e+01 6.2435768716250424e+00 0.0000000000000000e+00  8.7522898935534442e+01 -1.2062847893227314e+01 0.0000000000000000e+00  9.0212011766991225e+01 1.1446872572180702e+01 0.0000000000000000e+00  7.5114325115380865e+01 8.0160089664265577e+00 0.0000000000000000e+00  8.1912007811939901e+01 -4.5985163538790559e+00 0.0000000000000000e+00  5.4889132507832933e+01 -1.5220653358580888e+01 0.0000000000000000e+00  2.7900937002218644e+01 -6.9153937568446864e+00 0.0000000000000000e+00  4.9735374878780036e+01 -7.6800536404453341e+00 0.0000000000000000e+00  7.2284911875968533e+01 -1.2722700345815438e+01 0.0000000000000000e+00  9.2185083155382287e+01 -5.8691391414865688e+00 0.0000000000000000e+00  5.3514608936523809e+00 1.2459091603493819e+00 0.0000000000000000e+00  0.0000000000000000e+00 0.0000000000000000e+00 0.0000000000000000e+00  7.8222154022669983e+01 -1.4196064370537560e+01 0.0000000000000000e+00  4.3669824329842115e+01 -1.4667436886822948e+01 0.0000000000000000e+00  9.8793104439462709e+01 -1.5023866975692490e+00 0.0000000000000000e+00  5.4811496448214811e+01 1.5064334959748573e+01 0.0000000000000000e+00  0.0000000000000000e+00 0.0000000000000000e+00 0.0000000000000000e+00  8.1646027443118694e+00 -4.9331375215912132e+00 0.0000000000000000e+00  2.0788877141347136e+01 -1.0090886960545848e+01 0.0000000000000000e+00  8.1690905462199552e+00 4.9527285883128389e+00 0.0000000000000000e+00  0.0000000000000000e+00 0.0000000000000000e+00 0.0000000000000000e+00  0.0000000000000000e+00 0.0000000000000000e+00 0.0000000000000000e+00  2.0723917019757025e+01 1.0036337297231940e+01 0.0000000000000000e+00  9.7250420202404797e+01 7.6528254876947477e+00 0.0000000000000000e+00  0.0000000000000000e+00 0.0000000000000000e+00 0.0000000000000000e+00  9.8102222372149001e+01 4.2864388543331380e+00 0.0000000000000000e+00  3.2364899044798079e+01 -1.2974786195300489e+01 0.0000000000000000e+00  6.6311194713732775e+01 1.4711344154982713e+01 0.0000000000000000e+00  0.0000000000000000e+00 0.0000000000000000e+00 0.0000000000000000e+00  6.6382642365361590e+01 -1.4880832522519789e+01 0.0000000000000000e+00  0.0000000000000000e+00 0.0000000000000000e+00 0.0000000000000000e+00  6.2760697733725920e+01 -5.0235181121960348e+00 0.0000000000000000e+00  9.0906873700609722e+01 9.6950137608636027e+00 0.0000000000000000e+00  7.0950007325880421e+01 -4.2705468608245623e+00 0.0000000000000000e+00  5.9595461521267854e+00 -5.8442724425217074e-01 0.0000000000000000e+00  1.2582764913342958e+01 -3.6445245194948255e+00 0.0000000000000000e+00  1.2395670038020738e+01 -1.8775274435541740e+00 0.0000000000000000e+00  2.3130504435983827e+01 4.2866859726439038e-01 0.0000000000000000e+00  8.3064163583579841e+01 -7.3537660836242544e+00 0.0000000000000000e+00  4.0391974912107287e+01 -6.1776996668798878e+00 0.0000000000000000e+00  2.4785803341865059e+01 9.4987860946796818e+00 0.0000000000000000e+00  9.0294503164642332e+00 1.0307348693143130e+00 0.0000000000000000e+00  5.7080928507936370e+01 6.2667498665639503e+00 0.0000000000000000e+00  4.1074861178135906e+00 2.8111846412525676e-01 0.0000000000000000e+00  1.3330642983411638e+01 5.0773718683175340e-01 0.0000000000000000e+00  8.1415143323065237e+01 1.2416961664222177e+01 0.0000000000000000e+00  9.2272367741970072e+01 -9.0479738765832760e+00 0.0000000000000000e+00  3.0678723852497811e+01 -5.4034137020970441e+00 0.0000000000000000e+00  2.8641535858636384e+01 -2.3202244305147719e+00 0.0000000000000000e+00  6.4270458710210647e+01 -8.1383694524950556e+00 0.0000000000000000e+00  7.2556500527317937e+01 -7.0203315136601914e+00 0.0000000000000000e+00  4.1591726811096152e+01 1.2787682141315541e+01 0.0000000000000000e+00  5.1911384245191194e+01 1.3688533873792450e+01 0.0000000000000000e+00  9.2078390306528135e+01 -1.0779168647755014e+01 0.0000000000000000e+00  6.1655575008527251e+01 -1.3423275764434861e+01 0.0000000000000000e+00  6.5747903097457709e+01 -1.0494095433192841e+01 0.0000000000000000e+00  2.2394708150687290e+01 -8.2257665562824407e+00 0.0000000000000000e+00  7.6361610976887690e+01 -8.0436551886159169e+00 0.0000000000000000e+00  5.4679293806643038e+01 1.0767717283823504e+01 0.0000000000000000e+00  6.1626561929281500e+01 -1.1816417556673203e+01 0.0000000000000000e+00  3.7680817627071193e+01 -6.9689549395208426e+00 0.0000000000000000e+00  9.3344566091437898e+01 1.5678025257654626e+00 0.0000000000000000e+00  7.4915768013096425e+01 -5.2757569859134268e+00 0.0000000000000000e+00  9.4996442341581417e+00 1.8762502393187590e+00 0.0000000000000000e+00  3.0514430655390509e+01 -3.0729257910699836e-01 0.0000000000000000e+00  8.3455067592305184e+01 -1.5423342621028284e+00 0.0000000000000000e+00  7.2569877536085855e+01 9.9916794655876084e-01 0.0000000000000000e+00  1.3472572585498842e+01 -7.1000004486956159e-01 0.0000000000000000e+00  1.3592925891786610e+01 -6.5932616334689813e+00 0.0000000000000000e+00  7.7743614457222661e+00 -1.7332401943429372e+00 0.0000000000000000e+00  2.6821345321082731e+01 7.3173191964321225e+00 0.0000000000000000e+00  4.2899359122862059e+01 9.0539202518283162e+00 0.0000000000000000e+00  8.7397551454034769e+01 1.0582909654959844e+00 0.0000000000000000e+00  1.8097006525003088e+01 -5.7367278715452201e+00 0.0000000000000000e+00  2.8916125296386152e+01 -9.0220835968829451e+00 0.0000000000000000e+00  6.1549962713124692e+01 -1.4395860352072476e+00 0.0000000000000000e+00  2.7000469282222522e+01 -8.0684328060679134e-01 0.0000000000000000e+00  6.8682906407179615e+01 9.5634465115867400e+00 0.0000000000000000e+00  6.8843730694069592e+01 -1.2455720866883053e+00 0.0000000000000000e+00  1.9299058477784342e+01 -3.7520783082898439e+00 0.0000000000000000e+00  3.2987331562057683e+01 5.8043612704740974e+00 0.0000000000000000e+00  5.7025292279637746e+01 1.3740824939360383e+01 0.0000000000000000e+00  4.6020929896436201e+01 -1.3681332136849186e+01 0.0000000000000000e+00  5.8442549581565466e+01 -4.5571748470503284e+00 0.0000000000000000e+00  3.7742139225056917e+01 9.1139485754508414e+00 0.0000000000000000e+00  1.3799347235065964e+01 5.8426520453121480e+00 0.0000000000000000e+00  5.0263807250406289e+00 2.0402687696260551e+00 0.0000000000000000e+00  2.1360035906683660e+01 -2.2880638969104279e+00 0.0000000000000000e+00  9.1925328964800475e+00 -5.0586200856697350e-01 0.0000000000000000e+00  2.7441461440096319e+01 8.6158259845024165e-01 0.0000000000000000e+00  8.4805766234564359e+01 8.7076882951717032e+00 0.0000000000000000e+00  7.8711379211769199e+01 -1.0568447860139964e+01 0.0000000000000000e+00  8.2532147953812697e+01 -1.2611399920901242e+01 0.0000000000000000e+00  4.9180643822016208e+01 5.8482765844563485e+00 0.0000000000000000e+00  3.9484445532383226e+01 -1.1020843812607447e+01 0.0000000000000000e+00  9.3305042727064460e+01 -4.4323200345260041e+00 0.0000000000000000e+00  9.8789424849258225e+00 3.8621368586593370e+00 0.0000000000000000e+00  1.2914537542799177e+01 6.4177050205271637e+00 0.0000000000000000e+00  9.3433326949454454e+00 2.5079645558545876e+00 0.0000000000000000e+00  3.2489456557994991e+01 -8.5226684566576072e+00 0.0000000000000000e+00  2.4139781955896176e+01 4.2120031436075065e+00 0.0000000000000000e+00  1.7815779642554965e+01 2.6529433690921311e+00 0.0000000000000000e+00  2.5743224074320210e+01 2.5758253550142931e+00 0.0000000000000000e+00  6.2247813714499223e+01 7.5367783537893607e-01 0.0000000000000000e+00  9.6358445211896093e+00 1.8659079469193027e-01 0.0000000000000000e+00  1.5089802397606420e+01 4.6086782467675141e-03 0.0000000000000000e+00  8.0280187851286257e+01 1.0441748932985648e+01 0.0000000000000000e+00  8