<?xml version="1.0"?>
<VTKFile type="UnstructuredGrid"  version="0.1"  >
<UnstructuredGrid>
<Piece  NumberOfPoints="946" NumberOfCells="1750">
<Points>
<DataArray  type="Float64"  NumberOfComponents="3"  format="ascii">0 0.32 0  0 0 0  0.32 0 0  0.32 0.32 0  0.1724697960371747 0.1756366296493606 0  0.18 0.16 0  0.1724697960371747 0.1443633703506394 0  0.1555495813208737 0.1405014417563635 0  0.1419806226419516 0.1513223252176489 0  0.1419806226419516 0.1686776747823512 0  0.1555495813208737 0.1794985582436365 0  0.16 0 0  0.16 0.32 0  0 0.16 0  0.32 0.16 0  0 0.08 0  0.08 0.32 0  0.24 0.32 0  0.24 0 0  0.08 0 0  0 0.24 0  0.32 0.24 0  0.32 0.08 0  0.08592694963409589 0.2340730503659041 0  0.09723504067071323 0.08129523040606182 0  0.2485025301576233 0.2026205722241592 0  0.2485025301576233 0.1173794277758408 0  0.2 0.2581048886844819 0  0.1889605763553961 0.07021869017888714 0  0.07050285765800089 0.1476856419406569 0  0.2626424772744647 0.05735752272553532 0  0.2626424772744647 0.2626424772744647 0  0.1447816072330593 0.2374587553936669 0  0.04282408530903833 0.1971982211732629 0  0.04554450825441596 0.274455491745584 0  0.04903857218397407 0.04903857218397407 0  0.1128614872866735 0.2790987887082096 0  0.1399110114534574 0.04936689070262287 0  0.04941155347517124 0.1006161223016224 0  0.1496355911200375 0.0946072201431459 0  0.08687797064841728 0.1893325936267797 0  0.1836223425053792 0.2177429030315346 0  0.2 0 0  0.2217133382095595 0.04036678728721604 0  0.2715479262003908 0.16 0  0.32 0.12 0  0.32 0.2 0  0.2257739631001954 0.1627902633269421 0  0.1548967849624807 0.2782673419161616 0  0.0897006148708142 0.0404179931418645 0  0.107538280723678 0.1240209224048331 0  0.32 0.28 0  0.28 0.32 0  0.28 0 0  0.32 0.04 0  0.12 0 0  0.2039516700139062 0.1124591387402015 0  0.2849362927476249 0.22 0  0.2815293561446764 0.09348338480500666 0  0.2290792109707285 0.08041572628450755 0  0 0.28 0  0.04 0 0  0 0.04 0  0.04 0.32 0  0.12 0.32 0  0 0.12 0  0 0.2 0  0.2 0.32 0  0.04719239175293644 0.2357209338644246 0  0.18 0.03283282817802983 0  0.03459455113972755 0.1355155925219071 0  0.1167014944289527 0.2123468703682496 0  0.2198744590138257 0.2265366732600708 0  0.22 0.2890524443422409 0  0.204081763862146 0.1897937798179363 0  0.1071913724951102 0.1598347996150203 0  0.07978667269432378 0.2683152148058119 0  0.2860006368556086 0.1281615518882406 0  0.186506813499601 0.2893436424803662 0  0.2957739631001954 0.18 0  0.2316392291974886 0.2559837485353675 0  0.08021152966146175 0.1080055778168626 0  0.04441635849044757 0.1655954885374045 0  0.2947472697415967 0.06 0  0.2809249018017093 0.03158502010102351 0  0.26 0.2947472697415967 0  0.2884149798989765 0.2809249018017093 0  0.256672484859172 0.2323723914348942 0  0.2908214501123729 0.2502257334219019 0  0.2503210177196378 0.0292461423914427 0  0.02274573338381435 0.2189840478351313 0  0.1146826902677404 0.2474403078334797 0  0.1549462522594421 0.2093668180708425 0  0.1732625345983658 0.2454503644695569 0  0.07356656116298999 0.06452478082392021 0  0.06 0.02166594954719355 0  0.02166594954719355 0.06 0  0.1734153914003583 0.1138117780191064 0  0.02507614891476611 0.2541823748781176 0  0.06 0.2993250213261375 0  0.06567558499903407 0.2141159911915144 0  0.02763189511653209 0.02763189511653209 0  0.02494278260213273 0.2950572173978673 0  0.02004107171922797 0.18 0  0.2040501927894317 0.1423127791726191 0  0.1342304189892925 0.2964428064380718 0  0.1264926394567253 0.07591655272147446 0  0.2543666497519227 0.09071297109131458 0  0.02066198166129594 0.09999999999999999 0  0.1193780959095975 0.1847449346103752 0  0.160707918728762 0.06856184922550096 0  0.1538361108697094 0.02626258941247167 0  0.1175132179179275 0.02970175887161365 0  0.0896696062032081 0.2941172561602701 0  0.2742022309114764 0.1956235056735056 0  0.1239726595290947 0.1027100530571546 0  0.1335321747236177 0.1268103968792302 0  0.0499122293755764 0.07482237802140228 0  0.05819517943340596 0.1249404255334794 0  0.1081048626795913 0.05815873733743208 0  0.2248578566005799 0.1273171270776257 0  0.24768366274106 0.1453629293907381 0  0.1335968186922031 0.2644099964611069 0  0.32 0.3 0  0.3 0 0  0.06838889217592001 0.1725595603616699 0  0.249528960907333 0.175634842925295 0  0.2957739631001954 0.1553274784032326 0  0.2432967628691654 0.2772113171931903 0  0.1 0 0  0.2285610480410538 0.1883496915259968 0  0.225862132811426 0.1037668452078331 0  0.1736647625837365 0.08933247239824846 0  0.2993357267411931 0.1088148332367623 0  0.06713304658544594 0.2483745599733024 0  0.2026319410419582 0.1655790431588157 0  0.1760454911649975 0.2685554316255279 0  0.2030646762555508 0.02437471496075827 0  0.1988426812689453 0.0481673813828579 0  0.06945679754014131 0.08740101528473335 0  0.2057895491051014 0.08802649077812591 0  0.02307454549766386 0.1559206264272182 0  0.09329384086143681 0.2118493079368139 0  0.32 0.02 0  0.3 0.32 0  0.2418180309509497 0.04972906552246815 0  0.2302207815392449 0.01989532858742843 0  0.2116344848513204 0.06647287865702114 0  0.1015892528441933 0.1028503701787078 0  0.08548766811813724 0.130324271542442 0  0.1738888468295897 0.1977908758126339 0  0.1935153544470194 0.2372323905166999 0  0.1392024294186467 0.1941085745700379 0  0.162651402101493 0.04653830057657955 0  0.32 0.14 0  0.14 0 0  0 0.14 0  0.1218842618250836 0.1445369596787718 0  0.1547601880217414 0.2566432880075177 0  0.1656836023729501 0.2981266407595233 0  0.2646393387843483 0.1318553631182043 0  0.1520499682577364 0.1159424452913679 0  0.2689297159791842 0.1108406489128158 0  0.1873636572369935 0.1295339172313182 0  0.09821523099961101 0.02106645239750845 0  0.32 0.26 0  0.26 0 0  0.06642766578995243 0.1932983019411901 0  0.06857514007504398 0.04098095895828512 0  0.1103349978846541 0.3006132884839174 0  0.2946603593012491 0.2011664669614786 0  0.32 0.22 0  0.02027338666475766 0.2746043432734399 0  0.08864594687181412 0.1688068735898821 0  0.2775521174991735 0.07256268190182383 0  0.2987245083870996 0.08092070290318283 0  0.29 0.3017098912883955 0  0.2990320584978097 0.02096794150219029 0  0.2463492345359834 0.06959752019395787 0  0.2654773796189959 0.2140170394956884 0  0.18 0.32 0  0.09448372467937338 0.2532790612142212 0  0.1654350081562182 0.2267331611237137 0  0.2390335305373426 0.2986882615662559 0  0.3010101635301376 0.23255611418048 0  0.02003796083959144 0.07997173818442301 0  0 0.26 0  0.26 0.32 0  0.14 0.32 0  0.32 0.18 0  0.18 0 0  0 0.18 0  0.02 0.32 0  0.06 0.32 0  0.02 0 0  0 0.02 0  0 0.06 0  0.06 0 0  0.32 0.06 0  0 0.1 0  0.32 0.1 0  0.1 0.32 0  0.22 0 0  0 0.22 0  0.22 0.32 0  0 0.3 0  0.2043421036647595 0.2114473072800954 0  0.300117648281859 0.0408383263955461 0  0.2291682622510221 0.2085693000594399 0  0.02331022920862044 0.1993590370199751 0  0.04453044781284336 0.2550100187156381 0  0.04636640422114097 0.2163055674940632 0  0.08995604327016558 0.1493284521149021 0  0.2717478216285072 0.2451229270283992 0  0.1364232887077637 0.2185494929154821 0  0.07915250788508797 0.02422788742839905 0  0.03472244994099317 0.1149747875019265 0  0.1881779249453643 0.1017212412629791 0  0.01629165131922304 0.13 0  0.05209312411501219 0.1429448284101649 0  0.27 0.01609888122449058 0  0.3039011187755094 0.27 0  0.1056238252768235 0.2293143964959702 0  0.1044627782577052 0.1964944317792064 0  0.2112701179000619 0.2431599299511939 0  0.2371212790876119 0.23671986301665 0  0.134869546612649 0.01947889818358163 0  0.1702155675551379 0.01641641408901492 0  0.3044867772925856 0.29 0  0.2033493055180126 0.300228180312477 0  0.2166404004312849 0.2692872772322697 0  0.07290798518668593 0.2857436989124688 0  0.2501940255004452 0.2493738564802438 0  0.1805656909843765 0.05138168584494279 0  0.2031885809093209 0.2817418694837987 0  0.126943846361485 0.2340415326991557 0  0.3016843660072632 0.1378601179494526 0  0.2432065803494023 0.2198019477365854 0  0.03526793991462475 0.08952106974268711 0  0.1238589168862487 0.1671166860068179 0  0.2678983466055256 0.1781825687576463 0  0.2294665867144854 0.1449465024797043 0  0.05241044282339787 0.1818397416523924 0  0.04190629215957274 0.3018330391379935 0  0.02887443061886286 0.2362545879838862 0  0.09026557776125285 0.05824855596855569 0  0.1425531876736484 0.06736796104555459 0  0.281258687686961 0.1452085445853389 0  0.06166887543044805 0.2658270241044786 0  0.0951811906092474 0.277212412368241 0  0.1901744098194098 0.1784756914389974 0  0.1039769766529694 0.176843478198491 0  0.2261613818501348 0.05708268777249097 0  0.2157253214460238 0.1768176711861203 0  0.06885727120598739 0.2311409195507396 0  0.1126970106765598 0.08938921221039026 0  0.1877650755960391 0.01575214545037394 0  0.1495343544382765 0.3051797309312216 0  0.1902096743087982 0.2021790745381279 0  0.1253677941704219 0.05868235130887398 0  0.04509298838583223 0.03157747891467392 0  0.01772036574905172 0.04253890673069985 0  0.07876113846871613 0.2041663032253892 0  0.03614403721077862 0.1823576960570648 0  0.1050364490326094 0.1410441274755502 0  0.2788872943911097 0.05634094276455664 0  0.2594570428975347 0.2785414355164178 0  0.2735255936753959 0.3045813873480002 0  0.1639196831229942 0.1267798746896278 0  0.1294351075605798 0.2805149851885643 0  0.3035185360020085 0.2157116223141066 0  0.03389947159096717 0.04328314133748964 0  0.03936853269570236 0.01630129845673227 0  0.03388070554864334 0.07104790276482686 0  0.1082226788187749 0.262950309896791 0  0.08510328240440572 0.09234323992826286 0  0.06518897037110931 0.102737689748031 0  0.09357600397071598 0.1165232609468263 0  0.1884521987832472 0.1462981432167217 0  0.03817336953374532 0.1509904983167882 0  0.05925563603591531 0.1592565609525878 0  0.2649208252312628 0.03960291227259964 0  0.2734048808233756 0.286186142557552 0  0.2804430131292209 0.2648560847731692 0  0.1890687328560044 0.08598237488905017 0  0.3068981368091278 0.1911977894591457 0  0.3078869815500977 0.17 0  0.285589663580299 0.1676637392016163 0  0.2423127463526093 0.1020402493204296 0  0.2617548918941527 0.07314
[...]
<PointData  Vectors="Displacement"> 
<DataArray  type="Float64"  Name="Displacement"  NumberOfComponents="3" format="ascii">0.0000000000000000e+00 0.0000000000000000e+00 0.0000000000000000e+00  0.0000000000000000e+00 0.0000000000000000e+00 0.0000000000000000e+00  1.6025693958098812e-06 2.1666234932893869e-07 0.0000000000000000e+00  1.6025595878389992e-06 -2.1649786429286685e-07 0.0000000000000000e+00  9.4754946639365380e-07 -5.8638052727539642e-08 0.0000000000000000e+00  1.0648883143811656e-06 -2.8637514723409813e-10 0.0000000000000000e+00  9.4418998457940228e-07 5.4245375727225468e-08 0.0000000000000000e+00  7.4453342672300705e-07 8.2922615665476346e-08 0.0000000000000000e+00  5.6900057611505328e-07 2.3443894901635507e-08 0.0000000000000000e+00  5.6497227089625116e-07 -2.3347158575515270e-08 0.0000000000000000e+00  7.4827616238843473e-07 -8.7930788444864834e-08 0.0000000000000000e+00  8.2048011436949302e-07 2.4996274184658311e-07 0.0000000000000000e+00  8.2025350097886123e-07 -2.5004843157644506e-07 0.0000000000000000e+00  0.0000000000000000e+00 0.0000000000000000e+00 0.0000000000000000e+00  1.6483291121964029e-06 1.2379997408189548e-10 0.0000000000000000e+00  0.0000000000000000e+00 0.0000000000000000e+00 0.0000000000000000e+00  4.4296644174126459e-07 -1.9463040374349050e-07 0.0000000000000000e+00  1.2038746447588614e-06 -2.4085388198546226e-07 0.0000000000000000e+00  1.2038841384513227e-06 2.4113658419481165e-07 0.0000000000000000e+00  4.4324340507355878e-07 1.9460743756296643e-07 0.0000000000000000e+00  0.0000000000000000e+00 0.0000000000000000e+00 0.0000000000000000e+00  1.6281572078894977e-06 -1.0076460898953638e-07 0.0000000000000000e+00  1.6281306452388201e-06 1.0094980278865856e-07 0.0000000000000000e+00  4.1016052802236175e-07 -8.0024249602744667e-08 0.0000000000000000e+00  4.7176210987800578e-07 9.6227911212990300e-08 0.0000000000000000e+00  1.2851211619953804e-06 -5.8687575398782446e-08 0.0000000000000000e+00  1.2848699126998138e-06 5.8981187428885770e-08 0.0000000000000000e+00  1.0103520540191138e-06 -1.6154021430018907e-07 0.0000000000000000e+00  9.5306585221379719e-07 1.5262643968220066e-07 0.0000000000000000e+00  3.0194214395010956e-07 7.9771723372640478e-09 0.0000000000000000e+00  1.3319557582028067e-06 1.4980945920733253e-07 0.0000000000000000e+00  1.3319068139078592e-06 -1.4961018170942876e-07 0.0000000000000000e+00  7.2295837036476899e-07 -1.3328116971604239e-07 0.0000000000000000e+00  1.8512985126247164e-07 -1.7069716629913054e-08 0.0000000000000000e+00  2.2324518350227523e-07 -8.1618737467456225e-08 0.0000000000000000e+00  2.3927231725582072e-07 8.3118101018668420e-08 0.0000000000000000e+00  5.7320560297829612e-07 -1.6873490395679076e-07 0.0000000000000000e+00  7.0701188911841701e-07 1.7498609369237839e-07 0.0000000000000000e+00  2.2199500193213048e-07 3.5493494580619206e-08 0.0000000000000000e+00  7.4607947297503213e-07 1.2135170775632584e-07 0.0000000000000000e+00  3.8454437976803556e-07 -2.4422597029021890e-08 0.0000000000000000e+00  9.2666803892852774e-07 -1.0792015892114161e-07 0.0000000000000000e+00  1.0091868164197671e-06 2.5072819781417055e-07 0.0000000000000000e+00  1.1202470499760369e-06 1.8776024836402713e-07 0.0000000000000000e+00  1.4108599664930856e-06 2.8812469274732976e-11 0.0000000000000000e+00  1.6417846862031795e-06 4.7492945130261980e-08 0.0000000000000000e+00  1.6418353901351642e-06 -4.7446321523148876e-08 0.0000000000000000e+00  1.1984219789091098e-06 -3.2617318950576776e-09 0.0000000000000000e+00  7.8457230468332476e-07 -1.9145083150610563e-07 0.0000000000000000e+00  4.5496292334454951e-07 1.4744225156377882e-07 0.0000000000000000e+00  4.9217595266963707e-07 3.8768765431942290e-08 0.0000000000000000e+00  1.6147933784665437e-06 -1.5839065928866985e-07 0.0000000000000000e+00  1.4026991702230995e-06 -2.2875775617547881e-07 0.0000000000000000e+00  1.4026875017247733e-06 2.2894612294041199e-07 0.0000000000000000e+00  1.6148070681165348e-06 1.5856534205640161e-07 0.0000000000000000e+00  6.3364523792002553e-07 2.3187964374807820e-07 0.0000000000000000e+00  1.0467400813777084e-06 7.5294417998900770e-08 0.0000000000000000e+00  1.4604215959400040e-06 -8.1279590377980967e-08 0.0000000000000000e+00  1.4407397958819498e-06 9.1440690534296212e-08 0.0000000000000000e+00  1.1658030501408213e-06 1.2261871025029080e-07 0.0000000000000000e+00  0.0000000000000000e+00 0.0000000000000000e+00 0.0000000000000000e+00  2.4574677465670013e-07 1.3238323080146706e-07 0.0000000000000000e+00  0.0000000000000000e+00 0.0000000000000000e+00 0.0000000000000000e+00  2.4598606268239013e-07 -1.3219373714070027e-07 0.0000000000000000e+00  6.3335759928797053e-07 -2.3181590346047872e-07 0.0000000000000000e+00  0.0000000000000000e+00 0.0000000000000000e+00 0.0000000000000000e+00  0.0000000000000000e+00 0.0000000000000000e+00 0.0000000000000000e+00  1.0089954483713435e-06 -2.5082175389641399e-07 0.0000000000000000e+00  2.1661432565969438e-07 -4.6855434735856330e-08 0.0000000000000000e+00  9.1126340550707626e-07 2.0669349470958494e-07 0.0000000000000000e+00  1.4678831194316660e-07 8.6504623668744786e-09 0.0000000000000000e+00  5.5980362350111669e-07 -7.1790609439764453e-08 0.0000000000000000e+00  1.1219697709211657e-06 -1.0330196540074562e-07 0.0000000000000000e+00  1.1105995013966537e-06 -2.0197466801978070e-07 0.0000000000000000e+00  1.0708324416119470e-06 -4.0434789093833185e-08 0.0000000000000000e+00  4.5053881876519560e-07 -4.6904894068159736e-11 0.0000000000000000e+00  3.9659480713966324e-07 -1.2052104951236583e-07 0.0000000000000000e+00  1.4759195931472439e-06 4.2023269106735325e-08 0.0000000000000000e+00  9.4365211810863189e-07 -2.0938124057967365e-07 0.0000000000000000e+00  1.5270201305502990e-06 -2.5678061880287262e-08 0.0000000000000000e+00  1.1747774588087851e-06 -1.4804797803243731e-07 0.0000000000000000e+00  3.6802992778366545e-07 4.7741976494811816e-08 0.0000000000000000e+00  1.8738101983515928e-07 -2.2657106365583045e-09 0.0000000000000000e+00  1.4948634793059543e-06 1.3718739268455923e-07 0.0000000000000000e+00  1.4166347278939946e-06 1.8276616965327764e-07 0.0000000000000000e+00  1.3099529281316129e-06 -1.9825012148014958e-07 0.0000000000000000e+00  1.4563850141753693e-06 -1.6939206765083208e-07 0.0000000000000000e+00  1.3120497270690223e-06 -1.0434486895669068e-07 0.0000000000000000e+00  1.4785357550480891e-06 -1.2386775762606587e-07 0.0000000000000000e+00  1.2624250462458153e-06 1.9556341488434235e-07 0.0000000000000000e+00  9.9045173971405194e-08 -1.5736183478271739e-08 0.0000000000000000e+00  5.6802872355530676e-07 -1.2422679038110431e-07 0.0000000000000000e+00  7.7127434965287378e-07 -1.0841191224916850e-07 0.0000000000000000e+00  8.7155113203101985e-07 -1.4983157959617395e-07 0.0000000000000000e+00  3.5723980867091117e-07 9.6371198202288117e-08 0.0000000000000000e+00  3.1777694948070356e-07 1.3627859188436661e-07 0.0000000000000000e+00  9.9779407704707183e-08 3.1818846989935709e-08 0.0000000000000000e+00  8.7243572901429062e-07 1.0131660891402608e-07 0.0000000000000000e+00  1.1487676497906723e-07 -3.3674048136874055e-08 0.0000000000000000e+00  3.1864973921827490e-07 -1.3766405714221969e-07 0.0000000000000000e+00  2.9763095176439060e-07 -4.1505811451785295e-08 0.0000000000000000e+00  1.4088096900782753e-07 6.6583400211758571e-08 0.0000000000000000e+00  1.2849598672656603e-07 -6.3044056203691687e-08 0.0000000000000000e+00  8.3681553472945929e-08 -3.8197749427052421e-09 0.0000000000000000e+00  1.0927556867231924e-06 1.8704234467507572e-08 0.0000000000000000e+00  6.8854823735872684e-07 -2.0813200302262416e-07 0.0000000000000000e+00  6.2896201513452185e-07 1.2900498353875682e-07 0.0000000000000000e+00  1.3015218880398702e-06 1.0002942643889062e-07 0.0000000000000000e+00  8.9849201836417521e-08 1.4607347125119685e-08 0.0000000000000000e+00  5.3418973848822148e-07 -2.5537225675992009e-08 0.0000000000000000e+00  8.0804174100010063e-07 1.5660089885646830e-07 0.0000000000000000e+00  7.8375376116764984e-07 2.1255168237533919e-07 0.0000000000000000e+00  6.0271932783342111e-07 1.8849010829371258e-07 0.0000000000000000e+00  4.6530641553652919e-07 -1.6846370016676384e-07 0.0000000000000000e+00  1.4163033294887933e-06 -4.7785628450959417e-08 0.0000000000000000e+00  6.0387228441123968e-07 8.7209155980453054e-08 0.0000000000000000e+00  6.3345592277967714e-07 5.5024823571481805e-08 0.0000000000000000e+00  2.3312758003035243e-07 5.8361161052428127e-08 0.0000000000000000e+00  2.5437986344352737e-07 2.1630876273340328e-08 0.0000000000000000e+00  5.4008948123485226e-07 1.3950254042333632e-07 0.0000000000000000e+00  1.1732306725501434e-06 4.3853427496165963e-08 0.0000000000000000e+00  1.2949377919785702e-06 1.8796770794894018e-08 0.0000000000000000e+00  6.7267367751849338e-07 -1.6273459138356964e-07 0.0000000000000000e+00  1.6086505549711626e-06 -1.8748086346482626e-07 0.0000000000000000e+00  1.5025868661952591e-06 2.2279226667234761e-07 0.0000000000000000e+00  2.9272983345967496e-07 -7.9827177007595375e-09 0.0000000000000000e+00  1.3033864554007781e-06 -2.0189519149260403e-08 0.0000000000000000e+00  1.5289478015856417e-06 6.0082275431059332e-09 0.0000000000000000e+00  1.2299577727334391e-06 -1.7736134891166788e-07 0.0000000000000000e+00  5.3903936888746228e-07 2.1532863813236040e-07 0.0000000000000000e+00  1.1960401032032237e-06 -3.6713706732211609e-08 0.0000000000000000e+00  1.1595027659490539e-06 8.3646933360922026e-08 0.0000000000000000e+00  8.7239570668988599e-07 1.3050326721448359e-07 0.0000000000000000e+00  1.5356535237158170e-06 6.6783433078602016e-08 0.0000000000000000e+00  3.2072721558752873e-07 -8.0482149350997791e-08 0.0000000000000000e+00  1.1063794766959760e-06 -3.7989809073499451e-09 0.0000000000000000e+00  8.8878591402667922e-07 -1.8092732356724369e-07 0.0000000000000000e+00  1.0258863659924996e-06 2.1594081781283197e-07 0.0000000000000000e+00  1.0046281563109114e-06 1.8235974048345897e-07 0.0000000000000000e+00  3.2511029014475446e-07 6.4230412636253337e-08 0.0000000000000000e+00  1.0438718964119055e-06 1.1844401184890280e-07 0.0000000000000000e+00  9.5906177039049945e-08 8.3643506515958588e-10 0.0000000000000000e+00  4.3396492688828888e-07 -5.4570633165303467e-08 0.0000000000000000e+00  1.6086664696242059e-06 1.8764604452311520e-07 0.0000000000000000e+00  1.5025765199530972e-06 -2.2262786906176067e-07 0.0000000000000000e+00  1.2239162660282132e-06 1.6744404037069850e-07 0.0000000000000000e+00  1.1600510955511843e-06 2.1543109549046145e-07 0.0000000000000000e+00  1.0711811570897192e-06 1.5095512543707453e-07 0.0000000000000000e+00  4.8199802777314684e-07 6.7727328321968228e-08 0.0000000000000000e+00  3.7838507214454591e-07 2.4423494611902079e-08 0.0000000000000000e+00  8.7922833292988299e-07 -8.9760048688775396e-08 0.0000000000000000e+00  9.7737764265955825e-07 -1.3201571383339503e-07 0.0000000000000000e+00  6.6914905922696487e-07 -6.7778899315594013e-08 0.0000000000000000e+00  8.2237932237399661e-07 1.8642567522875982e-07 0.0000000000000000e+00  1.6465159823410243e-06 2.3250037670288612e-08 0.0000000000000000e+00  7.2709064459284380e-07 2.4350520279422600e-07 0.0000000000000000e+00  0.0000000000000000e+00 0.0000000000000000e+00 0.0000000000000000e+00  5.2449961485677234e-07 1.1523754612694689e-08 0.0000000000000000e+00  7.7859240414952622e-07 -1.6221500435686823e-07 0.0000000000000000e+00  8.4266283866157103e-07 -2.2121662484265223e-07 0.0000000000000000e+00  1.3719504595780580e-06 3.7670040485796773e-08 0.0000000000000000e+00  7.5377745971364576e-07 9.9279373707398919e-08 0.0000000000000000e+00  1.3844298535413212e-06 6.7531364460944366e-08 0.0000000000000000e+00  9.7407388548128512e-07 5.3473086928150724e-08 0.0000000000000000e+00  5.1220686051476738e-07 1.8412593708859814e-07 0.0000000000000000e+00  1.6212529181613906e-06 -1.2935811768491009e-07 0.0000000000000000e+00  1.3030548491711073e-06 2.3508319601976134e-07 0.0000000000000000e+00  2.9151631753377045e-07 -2.2959915781727691e-08 0.0000000000000000e+00  3.4535921165635473e-07 1.2159864022005764e-07 0.0000000000000000e+00  5.7341794825811506e-07 -1.9750976689337721e-07 0.0000000000000000e+00  1.5159039903208659e-06 -5.3771891680742812e-08 0.0000000000000000e+00  1.6352845942977681e-06 -7.3249761398459099e-08 0.0000000000000000e+00  9.6017377770093857e-08 -3.7387665785820675e-08 0.0000000000000000e+00  3.7892124893330461e-07 -6.3625456204673472e-09 0.0000000000000000e+00  1.4125949157361048e-06 1.2317174769291400e-07 0.0000000000000000e+00  1.5222482872264445e-06 1.0594506699835278e-07 0.0000000000000000e+00  1.4581250761655430e-06 -1.9918860128210941e-07 0.0000000000000000e+00  1.5041106881761027e-06 1.9268371992369292e-07 0.0000000000000000e+00  1.2522427571241043e-06 1.3522370005537117e-07 0.0000000000000000e+00  1.3650085198450464e-06 -7.4924804671099540e-08 0.0000000000000000e+00  9.1415244115945081e-07 -2.5243983718333890e-07 0.0000000000000000e+00  4.6481870042853482e-07 -1.1465115731411542e-07 0.0000000000000000e+00  8.2872631910476884e-07 -1.2689622872610182e-07 0.0000000000000000e+00  1.2041796450155769e-06 -2.1045213913406865e-07 0.0000000000000000e+00  1.5361454656009674e-06 -9.5925586681411895e-08 0.0000000000000000e+00  8.9225479961059779e-08 2.0873585494674930e-08 0.0000000000000000e+00  0.0000000000000000e+00 0.0000000000000000e+00 0.0000000000000000e+00  1.3030196455535660e-06 -2.3489334221740041e-07 0.0000000000000000e+00  7.2721066031803135e-07 -2.4348647233156293e-07 0.0000000000000000e+00  1.6464799303647572e-06 -2.3084315366072729e-08 0.0000000000000000e+00  9.1419091211495172e-07 2.5230995821906280e-07 0.0000000000000000e+00  0.0000000000000000e+00 0.0000000000000000e+00 0.0000000000000000e+00  1.3589679568669653e-07 -8.2072256193858734e-08 0.0000000000000000e+00  3.4608264049740129e-07 -1.6775960558340991e-07 0.0000000000000000e+00  1.3633195280547250e-07 8.2694049847510507e-08 0.0000000000000000e+00  0.0000000000000000e+00 0.0000000000000000e+00 0.0000000000000000e+00  0.0000000000000000e+00 0.0000000000000000e+00 0.0000000000000000e+00  3.4579755530854092e-07 1.6769384751024833e-07 0.0000000000000000e+00  1.6212346378901821e-06 1.2953724946940674e-07 0.0000000000000000e+00  0.0000000000000000e+00 0.0000000000000000e+00 0.0000000000000000e+00  1.6352606232761406e-06 7.3410987749301651e-08 0.0000000000000000e+00  5.3888133372751150e-07 -2.1555041620335490e-07 0.0000000000000000e+00  1.1058694322021628e-06 2.4667478781210816e-07 0.0000000000000000e+00  0.0000000000000000e+00 0.0000000000000000e+00 0.0000000000000000e+00  1.1056950370351732e-06 -2.4652776193486847e-07 0.0000000000000000e+00  0.0000000000000000e+00 0.0000000000000000e+00 0.0000000000000000e+00  1.0458539732955523e-06 -8.2353819159960282e-08 0.0000000000000000e+00  1.5155958076263534e-06 1.6348750906425349e-07 0.0000000000000000e+00  1.1823413666338706e-06 -6.9657613291254410e-08 0.0000000000000000e+00  9.9309256279310208e-08 -9.6104164239006378e-09 0.0000000000000000e+00  2.0961343949207383e-07 -6.0480857458743126e-08 0.0000000000000000e+00  2.0654546042101320e-07 -3.1022632919604885e-08 0.0000000000000000e+00  3.8552083109158557e-07 7.7009027710855437e-09 0.0000000000000000e+00  1.3840815900412430e-06 -1.2080631506613547e-07 0.0000000000000000e+00  6.7305778987236965e-07 -1.0207781014263733e-07 0.0000000000000000e+00  4.1342480051823382e-07 1.5884197069002892e-07 0.0000000000000000e+00  1.5051901873289344e-07 1.7376586486199331e-08 0.0000000000000000e+00  9.5152598637764757e-07 1.0571244121693472e-07 0.0000000000000000e+00  6.8466719022562456e-08 4.7756329094667799e-09 0.0000000000000000e+00  2.2219155921173658e-07 8.7695826543606963e-09 0.0000000000000000e+00  1.3575191135744881e-06 2.0870843383140461e-07 0.0000000000000000e+00  1.5374343622695270e-06 -1.4888006853190922e-07 0.0000000000000000e+00  5.1117066897441461e-07 -8.9385727710709234e-08 0.0000000000000000e+00  4.7730196615533589e-07 -3.8017357653182906e-08 0.0000000000000000e+00  1.0708837240353372e-06 -1.3422180178236496e-07 0.0000000000000000e+00  1.2090004579708129e-06 -1.1543644609267925e-07 0.0000000000000000e+00  6.9368448421433297e-07 2.1405259908021417e-07 0.0000000000000000e+00  8.6574605590663825e-07 2.2931098559930491e-07 0.0000000000000000e+00  1.5341063335486964e-06 -1.7772562610812768e-07 0.0000000000000000e+00  1.0270294502716328e-06 -2.2233880575504964e-07 0.0000000000000000e+00  1.0953866399848758e-06 -1.7344527504847048e-07 0.0000000000000000e+00  3.7298128809082036e-07 -1.3662046421046773e-07 0.0000000000000000e+00  1.2723594375598382e-06 -1.3241658234187918e-07 0.0000000000000000e+00  9.1170561289158806e-07 1.8068651067985091e-07 0.0000000000000000e+00  1.0266441367770603e-06 -1.9556405120485726e-07 0.0000000000000000e+00  6.2783102428565163e-07 -1.1532410497626811e-07 0.0000000000000000e+00  1.5558209958564215e-06 2.8012872623744080e-08 0.0000000000000000e+00  1.2483886084544469e-06 -8.6329875612023473e-08 0.0000000000000000e+00  1.5837787897201922e-07 3.1470632665413677e-08 0.0000000000000000e+00  5.0857098972915878e-07 -4.3430181413138206e-09 0.0000000000000000e+00  1.3908560906061982e-06 -2.3982465342918783e-08 0.0000000000000000e+00  1.2095424352529011e-06 1.8165608519814792e-08 0.0000000000000000e+00  2.2452445226360338e-07 -1.1523986645833678e-08 0.0000000000000000e+00  2.2633246931901910e-07 -1.0961415191365218e-07 0.0000000000000000e+00  1.2952627953431934e-07 -2.8726430863706946e-08 0.0000000000000000e+00  4.4723938036146978e-07 1.2253612330088747e-07 0.0000000000000000e+00  7.1526101980633757e-07 1.5184857015233499e-07 0.0000000000000000e+00  1.4566769941178589e-06 1.9427640908257307e-08 0.0000000000000000e+00  3.0145284028455110e-07 -9.5230079275862718e-08 0.0000000000000000e+00  4.8164795433131902e-07 -1.4974142433941269e-07 0.0000000000000000e+00  1.0258031448547398e-06 -2.2707423720862971e-08 0.0000000000000000e+00  4.4998744356139084e-07 -1.2797764846449223e-08 0.0000000000000000e+00  1.1451014891919532e-06 1.6090226167722737e-07 0.0000000000000000e+00  1.1473508914369549e-06 -1.9326522885432383e-08 0.0000000000000000e+00  3.2155238160570572e-07 -6.2115992845799332e-08 0.0000000000000000e+00  5.4994258899497046e-07 9.7461184634217528e-08 0.0000000000000000e+00  9.5099752175775873e-07 2.3029825015014024e-07 0.0000000000000000e+00  7.6647594378984813e-07 -2.2699314391513057e-07 0.0000000000000000e+00  9.7392758578001900e-07 -7.4670186824665434e-08 0.0000000000000000e+00  6.2931667590750388e-07 1.5273051436500982e-07 0.0000000000000000e+00  2.3016854243412504e-07 9.7659744243136136e-08 0.0000000000000000e+00  8.3830683329772114e-08 3.4100309584773557e-08 0.0000000000000000e+00  3.5594189476127275e-07 -3.7653196052825907e-08 0.0000000000000000e+00  1.5319541135717780e-07 -8.2235053690088057e-09 0.0000000000000000e+00  4.5738127462331291e-07 1.5016016188062969e-08 0.0000000000000000e+00  1.4138350505655658e-06 1.4692512692282726e-07 0.0000000000000000e+00  1.3113840569819907e-06 -1.7444044297743148e-07 0.0000000000000000e+00  1.3749322754645235e-06 -2.0841299030514832e-07 0.0000000000000000e+00  8.1975068600718169e-07 9.8561924500659028e-08 0.0000000000000000e+00  6.5770114926101935e-07 -1.8280740609798074e-07 0.0000000000000000e+00  1.5548796754784015e-06 -7.1972874099172482e-08 0.0000000000000000e+00  1.6475945451386631e-07 6.4566920196455011e-08 0.0000000000000000e+00  2.1545505933907057e-07 1.0721995217599925e-07 0.0000000000000000e+00  1.5579011799505031e-07 4.1990860218129728e-08 0.0000000000000000e+00  5.4123418223374183e-07 -1.4133499697086726e-07 0.0000000000000000e+00  4.0244166244237941e-07 7.0728282695672210e-08 0.0000000000000000e+00  2.9699882966290759e-07 4.4607427626869183e-08 0.0000000000000000e+00  4.2912027683255791e-07 4.3511015645758788e-08 0.0000000000000000e+00  1.0374794104843128e-06 1.3835934513746802e-08 0.0000000000000000e+00  1.6060294293792249e-07 3.3304614415526427e-09 0.0000000000000000e+00  2.5149734813699637e-07 4.3042103855906821e-10 0.0000000000000000e+00  1.3384855114928938e-06 1.7575822139430171e-07 0.0000000000000000e+00  1.3