<?xml version="1.0"?>
<VTKFile type="UnstructuredGrid"  version="0.1"  >
<UnstructuredGrid>
<Piece  NumberOfPoints="946" NumberOfCells="1750">
<Points>
<DataArray  type="Float64"  NumberOfComponents="3"  format="ascii">0 0.32 0  0 0 0  0.32 0 0  0.32 0.32 0  0.1724697960371747 0.1756366296493606 0  0.18 0.16 0  0.1724697960371747 0.1443633703506394 0  0.1555495813208737 0.1405014417563635 0  0.1419806226419516 0.1513223252176489 0  0.1419806226419516 0.1686776747823512 0  0.1555495813208737 0.1794985582436365 0  0.16 0 0  0.16 0.32 0  0 0.16 0  0.32 0.16 0  0 0.08 0  0.08 0.32 0  0.24 0.32 0  0.24 0 0  0.08 0 0  0 0.24 0  0.32 0.24 0  0.32 0.08 0  0.08592694963409589 0.2340730503659041 0  0.09723504067071323 0.08129523040606182 0  0.2485025301576233 0.2026205722241592 0  0.2485025301576233 0.1173794277758408 0  0.2 0.2581048886844819 0  0.1889605763553961 0.07021869017888714 0  0.07050285765800089 0.1476856419406569 0  0.2626424772744647 0.05735752272553532 0  0.2626424772744647 0.2626424772744647 0  0.1447816072330593 0.2374587553936669 0  0.04282408530903833 0.1971982211732629 0  0.04554450825441596 0.274455491745584 0  0.04903857218397407 0.04903857218397407 0  0.1128614872866735 0.2790987887082096 0  0.1399110114534574 0.04936689070262287 0  0.04941155347517124 0.1006161223016224 0  0.1496355911200375 0.0946072201431459 0  0.08687797064841728 0.1893325936267797 0  0.1836223425053792 0.2177429030315346 0  0.2 0 0  0.2217133382095595 0.04036678728721604 0  0.2715479262003908 0.16 0  0.32 0.12 0  0.32 0.2 0  0.2257739631001954 0.1627902633269421 0  0.1548967849624807 0.2782673419161616 0  0.0897006148708142 0.0404179931418645 0  0.107538280723678 0.1240209224048331 0  0.32 0.28 0  0.28 0.32 0  0.28 0 0  0.32 0.04 0  0.12 0 0  0.2039516700139062 0.1124591387402015 0  0.2849362927476249 0.22 0  0.2815293561446764 0.09348338480500666 0  0.2290792109707285 0.08041572628450755 0  0 0.28 0  0.04 0 0  0 0.04 0  0.04 0.32 0  0.12 0.32 0  0 0.12 0  0 0.2 0  0.2 0.32 0  0.04719239175293644 0.2357209338644246 0  0.18 0.03283282817802983 0  0.03459455113972755 0.1355155925219071 0  0.1167014944289527 0.2123468703682496 0  0.2198744590138257 0.2265366732600708 0  0.22 0.2890524443422409 0  0.204081763862146 0.1897937798179363 0  0.1071913724951102 0.1598347996150203 0  0.07978667269432378 0.2683152148058119 0  0.2860006368556086 0.1281615518882406 0  0.186506813499601 0.2893436424803662 0  0.2957739631001954 0.18 0  0.2316392291974886 0.2559837485353675 0  0.08021152966146175 0.1080055778168626 0  0.04441635849044757 0.1655954885374045 0  0.2947472697415967 0.06 0  0.2809249018017093 0.03158502010102351 0  0.26 0.2947472697415967 0  0.2884149798989765 0.2809249018017093 0  0.256672484859172 0.2323723914348942 0  0.2908214501123729 0.2502257334219019 0  0.2503210177196378 0.0292461423914427 0  0.02274573338381435 0.2189840478351313 0  0.1146826902677404 0.2474403078334797 0  0.1549462522594421 0.2093668180708425 0  0.1732625345983658 0.2454503644695569 0  0.07356656116298999 0.06452478082392021 0  0.06 0.02166594954719355 0  0.02166594954719355 0.06 0  0.1734153914003583 0.1138117780191064 0  0.02507614891476611 0.2541823748781176 0  0.06 0.2993250213261375 0  0.06567558499903407 0.2141159911915144 0  0.02763189511653209 0.02763189511653209 0  0.02494278260213273 0.2950572173978673 0  0.02004107171922797 0.18 0  0.2040501927894317 0.1423127791726191 0  0.1342304189892925 0.2964428064380718 0  0.1264926394567253 0.07591655272147446 0  0.2543666497519227 0.09071297109131458 0  0.02066198166129594 0.09999999999999999 0  0.1193780959095975 0.1847449346103752 0  0.160707918728762 0.06856184922550096 0  0.1538361108697094 0.02626258941247167 0  0.1175132179179275 0.02970175887161365 0  0.0896696062032081 0.2941172561602701 0  0.2742022309114764 0.1956235056735056 0  0.1239726595290947 0.1027100530571546 0  0.1335321747236177 0.1268103968792302 0  0.0499122293755764 0.07482237802140228 0  0.05819517943340596 0.1249404255334794 0  0.1081048626795913 0.05815873733743208 0  0.2248578566005799 0.1273171270776257 0  0.24768366274106 0.1453629293907381 0  0.1335968186922031 0.2644099964611069 0  0.32 0.3 0  0.3 0 0  0.06838889217592001 0.1725595603616699 0  0.249528960907333 0.175634842925295 0  0.2957739631001954 0.1553274784032326 0  0.2432967628691654 0.2772113171931903 0  0.1 0 0  0.2285610480410538 0.1883496915259968 0  0.225862132811426 0.1037668452078331 0  0.1736647625837365 0.08933247239824846 0  0.2993357267411931 0.1088148332367623 0  0.06713304658544594 0.2483745599733024 0  0.2026319410419582 0.1655790431588157 0  0.1760454911649975 0.2685554316255279 0  0.2030646762555508 0.02437471496075827 0  0.1988426812689453 0.0481673813828579 0  0.06945679754014131 0.08740101528473335 0  0.2057895491051014 0.08802649077812591 0  0.02307454549766386 0.1559206264272182 0  0.09329384086143681 0.2118493079368139 0  0.32 0.02 0  0.3 0.32 0  0.2418180309509497 0.04972906552246815 0  0.2302207815392449 0.01989532858742843 0  0.2116344848513204 0.06647287865702114 0  0.1015892528441933 0.1028503701787078 0  0.08548766811813724 0.130324271542442 0  0.1738888468295897 0.1977908758126339 0  0.1935153544470194 0.2372323905166999 0  0.1392024294186467 0.1941085745700379 0  0.162651402101493 0.04653830057657955 0  0.32 0.14 0  0.14 0 0  0 0.14 0  0.1218842618250836 0.1445369596787718 0  0.1547601880217414 0.2566432880075177 0  0.1656836023729501 0.2981266407595233 0  0.2646393387843483 0.1318553631182043 0  0.1520499682577364 0.1159424452913679 0  0.2689297159791842 0.1108406489128158 0  0.1873636572369935 0.1295339172313182 0  0.09821523099961101 0.02106645239750845 0  0.32 0.26 0  0.26 0 0  0.06642766578995243 0.1932983019411901 0  0.06857514007504398 0.04098095895828512 0  0.1103349978846541 0.3006132884839174 0  0.2946603593012491 0.2011664669614786 0  0.32 0.22 0  0.02027338666475766 0.2746043432734399 0  0.08864594687181412 0.1688068735898821 0  0.2775521174991735 0.07256268190182383 0  0.2987245083870996 0.08092070290318283 0  0.29 0.3017098912883955 0  0.2990320584978097 0.02096794150219029 0  0.2463492345359834 0.06959752019395787 0  0.2654773796189959 0.2140170394956884 0  0.18 0.32 0  0.09448372467937338 0.2532790612142212 0  0.1654350081562182 0.2267331611237137 0  0.2390335305373426 0.2986882615662559 0  0.3010101635301376 0.23255611418048 0  0.02003796083959144 0.07997173818442301 0  0 0.26 0  0.26 0.32 0  0.14 0.32 0  0.32 0.18 0  0.18 0 0  0 0.18 0  0.02 0.32 0  0.06 0.32 0  0.02 0 0  0 0.02 0  0 0.06 0  0.06 0 0  0.32 0.06 0  0 0.1 0  0.32 0.1 0  0.1 0.32 0  0.22 0 0  0 0.22 0  0.22 0.32 0  0 0.3 0  0.2043421036647595 0.2114473072800954 0  0.300117648281859 0.0408383263955461 0  0.2291682622510221 0.2085693000594399 0  0.02331022920862044 0.1993590370199751 0  0.04453044781284336 0.2550100187156381 0  0.04636640422114097 0.2163055674940632 0  0.08995604327016558 0.1493284521149021 0  0.2717478216285072 0.2451229270283992 0  0.1364232887077637 0.2185494929154821 0  0.07915250788508797 0.02422788742839905 0  0.03472244994099317 0.1149747875019265 0  0.1881779249453643 0.1017212412629791 0  0.01629165131922304 0.13 0  0.05209312411501219 0.1429448284101649 0  0.27 0.01609888122449058 0  0.3039011187755094 0.27 0  0.1056238252768235 0.2293143964959702 0  0.1044627782577052 0.1964944317792064 0  0.2112701179000619 0.2431599299511939 0  0.2371212790876119 0.23671986301665 0  0.134869546612649 0.01947889818358163 0  0.1702155675551379 0.01641641408901492 0  0.3044867772925856 0.29 0  0.2033493055180126 0.300228180312477 0  0.2166404004312849 0.2692872772322697 0  0.07290798518668593 0.2857436989124688 0  0.2501940255004452 0.2493738564802438 0  0.1805656909843765 0.05138168584494279 0  0.2031885809093209 0.2817418694837987 0  0.126943846361485 0.2340415326991557 0  0.3016843660072632 0.1378601179494526 0  0.2432065803494023 0.2198019477365854 0  0.03526793991462475 0.08952106974268711 0  0.1238589168862487 0.1671166860068179 0  0.2678983466055256 0.1781825687576463 0  0.2294665867144854 0.1449465024797043 0  0.05241044282339787 0.1818397416523924 0  0.04190629215957274 0.3018330391379935 0  0.02887443061886286 0.2362545879838862 0  0.09026557776125285 0.05824855596855569 0  0.1425531876736484 0.06736796104555459 0  0.281258687686961 0.1452085445853389 0  0.06166887543044805 0.2658270241044786 0  0.0951811906092474 0.277212412368241 0  0.1901744098194098 0.1784756914389974 0  0.1039769766529694 0.176843478198491 0  0.2261613818501348 0.05708268777249097 0  0.2157253214460238 0.1768176711861203 0  0.06885727120598739 0.2311409195507396 0  0.1126970106765598 0.08938921221039026 0  0.1877650755960391 0.01575214545037394 0  0.1495343544382765 0.3051797309312216 0  0.1902096743087982 0.2021790745381279 0  0.1253677941704219 0.05868235130887398 0  0.04509298838583223 0.03157747891467392 0  0.01772036574905172 0.04253890673069985 0  0.07876113846871613 0.2041663032253892 0  0.03614403721077862 0.1823576960570648 0  0.1050364490326094 0.1410441274755502 0  0.2788872943911097 0.05634094276455664 0  0.2594570428975347 0.2785414355164178 0  0.2735255936753959 0.3045813873480002 0  0.1639196831229942 0.1267798746896278 0  0.1294351075605798 0.2805149851885643 0  0.3035185360020085 0.2157116223141066 0  0.03389947159096717 0.04328314133748964 0  0.03936853269570236 0.01630129845673227 0  0.03388070554864334 0.07104790276482686 0  0.1082226788187749 0.262950309896791 0  0.08510328240440572 0.09234323992826286 0  0.06518897037110931 0.102737689748031 0  0.09357600397071598 0.1165232609468263 0  0.1884521987832472 0.1462981432167217 0  0.03817336953374532 0.1509904983167882 0  0.05925563603591531 0.1592565609525878 0  0.2649208252312628 0.03960291227259964 0  0.2734048808233756 0.286186142557552 0  0.2804430131292209 0.2648560847731692 0  0.1890687328560044 0.08598237488905017 0  0.3068981368091278 0.1911977894591457 0  0.3078869815500977 0.17 0  0.285589663580299 0.1676637392016163 0  0.2423127463526093 0.1020402493204296 0  0.2617548918941527 0.07314
[...]
<PointData  Vectors="Displacement"> 
<DataArray  type="Float64"  Name="Displacement"  NumberOfComponents="3" format="ascii">0.0000000000000000e+00 0.0000000000000000e+00 0.0000000000000000e+00  0.0000000000000000e+00 0.0000000000000000e+00 0.0000000000000000e+00  9.6154180405951735e+01 1.2999790105119024e+01 0.0000000000000000e+00  9.6153558613118591e+01 -1.2989822713282429e+01 0.0000000000000000e+00  5.6852968029813674e+01 -3.5182542318820533e+00 0.0000000000000000e+00  6.3893298791311175e+01 -1.7152144733628492e-02 0.0000000000000000e+00  5.6651399082020511e+01 3.2547514096440620e+00 0.0000000000000000e+00  4.4672005669076057e+01 4.9753816241154656e+00 0.0000000000000000e+00  3.4140034283376067e+01 1.4066551212296488e+00 0.0000000000000000e+00  3.3898336559809856e+01 -1.4008081091958253e+00 0.0000000000000000e+00  4.4896569740947257e+01 -5.2758226472322134e+00 0.0000000000000000e+00  4.9228822732153048e+01 1.4997791621102467e+01 0.0000000000000000e+00  4.9215194198729485e+01 -1.5002878785492927e+01 0.0000000000000000e+00  0.0000000000000000e+00 0.0000000000000000e+00 0.0000000000000000e+00  9.8899746729523656e+01 7.4758820929898342e-03 0.0000000000000000e+00  0.0000000000000000e+00 0.0000000000000000e+00 0.0000000000000000e+00  2.6577974901998591e+01 -1.1677810526650912e+01 0.0000000000000000e+00  7.2232461923686543e+01 -1.4451193708530981e+01 0.0000000000000000e+00  7.2233065069456472e+01 1.4468234266987697e+01 0.0000000000000000e+00  2.6594615909890393e+01 1.1676459948497003e+01 0.0000000000000000e+00  0.0000000000000000e+00 0.0000000000000000e+00 0.0000000000000000e+00  9.7689424963854805e+01 -6.0458279978026574e+00 0.0000000000000000e+00  9.7687846227392413e+01 6.0570367029887127e+00 0.0000000000000000e+00  2.4609628535427451e+01 -4.8014418356128239e+00 0.0000000000000000e+00  2.8305730437463499e+01 5.7736897894487047e+00 0.0000000000000000e+00  7.7107266191829964e+01 -3.5212146964844360e+00 0.0000000000000000e+00  7.7092198290104719e+01 3.5389110755816588e+00 0.0000000000000000e+00  6.0621114661137113e+01 -9.6923797739040580e+00 0.0000000000000000e+00  5.7183958625394368e+01 9.1576176423885727e+00 0.0000000000000000e+00  1.8116528948551533e+01 4.7864080669462739e-01 0.0000000000000000e+00  7.9917355239954375e+01 8.9886095551957883e+00 0.0000000000000000e+00  7.9914399091428677e+01 -8.9765688948252045e+00 0.0000000000000000e+00  4.3377496911487043e+01 -7.9968467218571275e+00 0.0000000000000000e+00  1.1107790401873830e+01 -1.0241769215305172e+00 0.0000000000000000e+00  1.3394707544445113e+01 -4.8971174994219542e+00 0.0000000000000000e+00  1.4356342545389749e+01 4.9870933458219096e+00 0.0000000000000000e+00  3.4392327971710777e+01 -1.0124075748797623e+01 0.0000000000000000e+00  4.2420721785777900e+01 1.0499188703385963e+01 0.0000000000000000e+00  1.3319701479804959e+01 2.1296167581424066e+00 0.0000000000000000e+00  4.4764772754744996e+01 7.2811266485077972e+00 0.0000000000000000e+00  2.3072661842602198e+01 -1.4653427060949831e+00 0.0000000000000000e+00  5.5600078089503334e+01 -6.4751792400859447e+00 0.0000000000000000e+00  6.0551225584032899e+01 1.5043725320113406e+01 0.0000000000000000e+00  6.7214834394317279e+01 1.1265651400796632e+01 0.0000000000000000e+00  8.4651597992928686e+01 1.7714235303291090e-03 0.0000000000000000e+00  9.8507084742223839e+01 2.8496247860185488e+00 0.0000000000000000e+00  9.8510119836918591e+01 -2.8467312199731389e+00 0.0000000000000000e+00  7.1905318538660197e+01 -1.9566738334067199e-01 0.0000000000000000e+00  4.7074328426519926e+01 -1.1487024103324860e+01 0.0000000000000000e+00  2.7297782370091227e+01 8.8465495355254760e+00 0.0000000000000000e+00  2.9530558541071237e+01 2.3261424170884357e+00 0.0000000000000000e+00  9.6887590770370323e+01 -9.5033905787256927e+00 0.0000000000000000e+00  8.4161933516891011e+01 -1.3725421010932525e+01 0.0000000000000000e+00  8.4161266794695081e+01 1.3736811744862276e+01 0.0000000000000000e+00  9.6888436025070021e+01 9.5139695041151224e+00 0.0000000000000000e+00  3.8018728551258633e+01 1.3912799052204322e+01 0.0000000000000000e+00  6.2804408375287508e+01 4.5176986301931148e+00 0.0000000000000000e+00  8.7625290393063807e+01 -4.8767309294080947e+00 0.0000000000000000e+00  8.6444393749776324e+01 5.4864855664694696e+00 0.0000000000000000e+00  6.9948189955131028e+01 7.3571599614525383e+00 0.0000000000000000e+00  0.0000000000000000e+00 0.0000000000000000e+00 0.0000000000000000e+00  1.4744813953392173e+01 7.9430008362037947e+00 0.0000000000000000e+00  0.0000000000000000e+00 0.0000000000000000e+00 0.0000000000000000e+00  1.4759156278431847e+01 -7.9316172364630457e+00 0.0000000000000000e+00  3.8001441689381437e+01 -1.3908933774589753e+01 0.0000000000000000e+00  0.0000000000000000e+00 0.0000000000000000e+00 0.0000000000000000e+00  0.0000000000000000e+00 0.0000000000000000e+00 0.0000000000000000e+00  6.0539710292448689e+01 -1.5049271775518845e+01 0.0000000000000000e+00  1.2996857717573240e+01 -2.8113193212154837e+00 0.0000000000000000e+00  5.4675815978784016e+01 1.2401639775810979e+01 0.0000000000000000e+00  8.8072990659959149e+00 5.1903260169774124e-01 0.0000000000000000e+00  3.3588214868100494e+01 -4.3074184276516991e+00 0.0000000000000000e+00  6.7318180741398066e+01 -6.1980819637851496e+00 0.0000000000000000e+00  6.6635957540748976e+01 -1.2118443777451793e+01 0.0000000000000000e+00  6.4249944595973048e+01 -2.4260538180467646e+00 0.0000000000000000e+00  2.7032329120508532e+01 -2.7978152255866413e-03 0.0000000000000000e+00  2.3795683117205702e+01 -7.2312504493054162e+00 0.0000000000000000e+00  8.8555178336942845e+01 2.5214406091043950e+00 0.0000000000000000e+00  5.6619115019100150e+01 -1.2562843273025214e+01 0.0000000000000000e+00  9.1621206106537471e+01 -1.5406381891584546e+00 0.0000000000000000e+00  7.0486638784873435e+01 -8.8828408858219383e+00 0.0000000000000000e+00  2.2081797468188636e+01 2.8645306361656959e+00 0.0000000000000000e+00  1.1242861092688493e+01 -1.3593627657998708e-01 0.0000000000000000e+00  8.9691818352192826e+01 8.2312894740163465e+00 0.0000000000000000e+00  8.4998096516364114e+01 1.0966014597923655e+01 0.0000000000000000e+00  7.8597162147060303e+01 -1.1894965469140859e+01 0.0000000000000000e+00  8.7383088878637622e+01 -1.0163478770634844e+01 0.0000000000000000e+00  7.8722977175754380e+01 -6.2606510769948231e+00 0.0000000000000000e+00  8.8712136797871622e+01 -7.4320200726211354e+00 0.0000000000000000e+00  7.5745515784643004e+01 1.1733845426982509e+01 0.0000000000000000e+00  5.9427097986199078e+00 -9.4416793354416007e-01 0.0000000000000000e+00  3.4081718229391541e+01 -7.4535891419772273e+00 0.0000000000000000e+00  4.6276457858387111e+01 -6.5046897481069328e+00 0.0000000000000000e+00  5.2293061161288477e+01 -8.9898661781736102e+00 0.0000000000000000e+00  2.1434392516970583e+01 5.7822831564289610e+00 0.0000000000000000e+00  1.9066623706361057e+01 8.1767252324758601e+00 0.0000000000000000e+00  5.9867657583397325e+00 1.9091337065208736e+00 0.0000000000000000e+00  5.2346146820639184e+01 6.0790250519864459e+00 0.0000000000000000e+00  6.8926045443484512e+00 -2.0204395061742035e+00 0.0000000000000000e+00  1.9118977497345032e+01 -8.2598336890850508e+00 0.0000000000000000e+00  1.7857855516243344e+01 -2.4903390083567638e+00 0.0000000000000000e+00  8.4528610843136409e+00 3.9950080673004145e+00 0.0000000000000000e+00  7.7097563914098650e+00 -3.7826397287166258e+00 0.0000000000000000e+00  5.0208930366177622e+00 -2.2918375078246478e-01 0.0000000000000000e+00  6.5565342199953903e+01 1.1222875203980407e+00 0.0000000000000000e+00  4.1312882860101730e+01 -1.2487897686775250e+01 0.0000000000000000e+00  3.7737726242311268e+01 7.7403193124050507e+00 0.0000000000000000e+00  7.8091319400015053e+01 6.0018063352839297e+00 0.0000000000000000e+00  5.3909527069612251e+00 8.7644360244928954e-01 0.0000000000000000e+00  3.2051383522788512e+01 -1.5322151649977840e+00 0.0000000000000000e+00  4.8482511534860024e+01 9.3960804016666390e+00 0.0000000000000000e+00  4.7025237442574948e+01 1.2753126752750690e+01 0.0000000000000000e+00  3.6163169450399700e+01 1.1309426000061054e+01 0.0000000000000000e+00  2.7918376334377633e+01 -1.0107807265616099e+01 0.0000000000000000e+00  8.4978196722675605e+01 -2.8670946225160647e+00 0.0000000000000000e+00  3.6232340140947692e+01 5.2325688088543645e+00 0.0000000000000000e+00  3.8007356746125282e+01 3.3015101063155163e+00 0.0000000000000000e+00  1.3987657097165014e+01 3.5016768908210021e+00 0.0000000000000000e+00  1.5262792640805142e+01 1.2978610478904065e+00 0.0000000000000000e+00  3.2405375063574368e+01 8.3701697780532971e+00 0.0000000000000000e+00  7.0393842790532304e+01 2.6312421742203678e+00 0.0000000000000000e+00  7.7696268674228278e+01 1.1278458481866023e+00 0.0000000000000000e+00  4.0360413126662280e+01 -9.7640536047895967e+00 0.0000000000000000e+00  9.6519019013743218e+01 -1.1248802699771165e+01 0.0000000000000000e+00  9.0155228636323514e+01 1.3367582774106884e+01 0.0000000000000000e+00  1.7563789691794600e+01 -4.7895293664500155e-01 0.0000000000000000e+00  7.8203186079989592e+01 -1.2113312968226850e+00 0.0000000000000000e+00  9.1736868496667086e+01 3.6053914396082665e-01 0.0000000000000000e+00  7.3797455051168868e+01 -1.0641641405301080e+01 0.0000000000000000e+00  3.2342375215498947e+01 1.2919735352459035e+01 0.0000000000000000e+00  7.1762404070619141e+01 -2.2027853840104319e+00 0.0000000000000000e+00  6.9570170529998833e+01 5.0188527842405879e+00 0.0000000000000000e+00  5.2343747734695128e+01 7.8302246166848706e+00 0.0000000000000000e+00  9.2139215988144755e+01 4.0070520532231377e+00 0.0000000000000000e+00  1.9243629700412825e+01 -4.8289188659309303e+00 0.0000000000000000e+00  6.6382768323814346e+01 -2.2790567065837630e-01 0.0000000000000000e+00  5.3327145549372709e+01 -1.0855610143369328e+01 0.0000000000000000e+00  6.1553195142817572e+01 1.2956482883139865e+01 0.0000000000000000e+00  6.0277699514823404e+01 1.0941617417483380e+01 0.0000000000000000e+00  1.9506619906241944e+01 3.8538351176070349e+00 0.0000000000000000e+00  6.2632319680706097e+01 7.1066745822272015e+00 0.0000000000000000e+00  5.7543706621363686e+00 5.0189293252849612e-02 0.0000000000000000e+00  2.6037893555008775e+01 -3.2742237742769502e+00 0.0000000000000000e+00  9.6520002463384657e+01 1.1258811778804983e+01 0.0000000000000000e+00  9.0154574536582928e+01 -1.3357625365444147e+01 0.0000000000000000e+00  7.3434986435886572e+01 1.0046681707673685e+01 0.0000000000000000e+00  6.9603079802813667e+01 1.2925903552551244e+01 0.0000000000000000e+00  6.4270877666949573e+01 9.0573423773565036e+00 0.0000000000000000e+00  2.8919884216769976e+01 4.0636553453129389e+00 0.0000000000000000e+00  2.2703105269142664e+01 1.4654225654475945e+00 0.0000000000000000e+00  5.2753697691648270e+01 -5.3855741985810814e+00 0.0000000000000000e+00  5.8642652288971163e+01 -7.9209108769574721e+00 0.0000000000000000e+00  4.0148942065990234e+01 -4.0667122993632505e+00 0.0000000000000000e+00  4.9342768860929418e+01 1.1185567578255878e+01 0.0000000000000000e+00  9.8790960697164380e+01 1.3950501906419088e+00 0.0000000000000000e+00  4.3625453875392836e+01 1.4610335967706908e+01 0.0000000000000000e+00  0.0000000000000000e+00 0.0000000000000000e+00 0.0000000000000000e+00  3.1469977226185119e+01 6.9144405640207685e-01 0.0000000000000000e+00  4.6715536810610281e+01 -9.7328747734118668e+00 0.0000000000000000e+00  5.0559757575336121e+01 -1.3272969645537447e+01 0.0000000000000000e+00  8.2317029924054523e+01 2.2602442943276992e+00 0.0000000000000000e+00  4.5226650202980871e+01 5.9567867561760455e+00 0.0000000000000000e+00  8.3065795473219993e+01 4.0519243651920389e+00 0.0000000000000000e+00  5.8444434821695097e+01 3.2084162934434683e+00 0.0000000000000000e+00  3.0732421430739002e+01 1.1047572543181094e+01 0.0000000000000000e+00  9.7275165417688967e+01 -7.7614382840965606e+00 0.0000000000000000e+00  7.8183307697163229e+01 1.4105033620124832e+01 0.0000000000000000e+00  1.7490978166642297e+01 -1.3775851555503267e+00 0.0000000000000000e+00  2.0721558203191396e+01 7.2959291783539388e+00 0.0000000000000000e+00  3.4405066128592154e+01 -1.1850567564933792e+01 0.0000000000000000e+00  9.0954235799773400e+01 -3.2262680066403457e+00 0.0000000000000000e+00  9.8117070182617184e+01 -4.3949373940984087e+00 0.0000000000000000e+00  5.7610411201747080e+00 -2.2432572245070408e+00 0.0000000000000000e+00  2.2735274682807489e+01 -3.8173930945261242e-01 0.0000000000000000e+00  8.4755703090572155e+01 7.3903486477912459e+00 0.0000000000000000e+00  9.1334904579873012e+01 6.3567502346410283e+00 0.0000000000000000e+00  8.7487490110614687e+01 -1.1951270513912231e+01 0.0000000000000000e+00  9.0246655437430476e+01 1.1561069828271737e+01 0.0000000000000000e+00  7.5134573696025214e+01 8.1134617985281832e+00 0.0000000000000000e+00  8.1900506494099275e+01 -4.4954461912034072e+00 0.0000000000000000e+00  5.4849130134457518e+01 -1.5146359893002991e+01 0.0000000000000000e+00  2.7889117199053988e+01 -6.8790545996245722e+00 0.0000000000000000e+00  4.9723574327489608e+01 -7.6137466468726371e+00 0.0000000000000000e+00  7.2250764756838720e+01 -1.2627089304940110e+01 0.0000000000000000e+00  9.2168721254618447e+01 -5.7554887913654920e+00 0.0000000000000000e+00  5.3535296424444123e+00 1.2524177875012295e+00 0.0000000000000000e+00  0.0000000000000000e+00 0.0000000000000000e+00 0.0000000000000000e+00  7.8181161993975209e+01 -1.4093558674483386e+01 0.0000000000000000e+00  4.3632624428371578e+01 -1.4609164544178192e+01 0.0000000000000000e+00  9.8788794061727586e+01 -1.3850109911828241e+00 0.0000000000000000e+00  5.4851471050666284e+01 1.5138627830898367e+01 0.0000000000000000e+00  0.0000000000000000e+00 0.0000000000000000e+00 0.0000000000000000e+00  8.1538033312235658e+00 -4.9243317757743243e+00 0.0000000000000000e+00  2.0764948658564172e+01 -1.0065565995099513e+01 0.0000000000000000e+00  8.1799215912235823e+00 4.9616466325652908e+00 0.0000000000000000e+00  0.0000000000000000e+00 0.0000000000000000e+00 0.0000000000000000e+00  0.0000000000000000e+00 0.0000000000000000e+00 0.0000000000000000e+00  2.0747863096977103e+01 1.0061641183545664e+01 0.0000000000000000e+00  9.7274087938213910e+01 7.7722837493646431e+00 0.0000000000000000e+00  0.0000000000000000e+00 0.0000000000000000e+00 0.0000000000000000e+00  9.8115642876878653e+01 4.4047075603991690e+00 0.0000000000000000e+00  3.2332866943229618e+01 -1.2933007911892677e+01 0.0000000000000000e+00  6.6352182669705385e+01 1.4800523685500661e+01 0.0000000000000000e+00  0.0000000000000000e+00 0.0000000000000000e+00 0.0000000000000000e+00  6.6341685497229577e+01 -1.4791629289638969e+01 0.0000000000000000e+00  0.0000000000000000e+00 0.0000000000000000e+00 0.0000000000000000e+00  6.2751234533402048e+01 -4.9411955328835209e+00 0.0000000000000000e+00  9.0935760253506430e+01 9.8092972119033828e+00 0.0000000000000000e+00  7.0940478106742148e+01 -4.1794195853325968e+00 0.0000000000000000e+00  5.9585549720067306e+00 -5.7662179805269598e-01 0.0000000000000000e+00  1.2576803935338141e+01 -3.6288450447560665e+00 0.0000000000000000e+00  1.2392726423225366e+01 -1.8613513696197461e+00 0.0000000000000000e+00  2.3131250170018237e+01 4.6206780494877031e-01 0.0000000000000000e+00  8.3044887531030895e+01 -7.2483358511627900e+00 0.0000000000000000e+00  4.0383463916847397e+01 -6.1246469442928282e+00 0.0000000000000000e+00  2.4805496072689753e+01 9.5305312046287636e+00 0.0000000000000000e+00  9.0311418147028455e+00 1.0426000343537345e+00 0.0000000000000000e+00  5.7091563525505606e+01 6.3427775191747742e+00 0.0000000000000000e+00  4.1080033525683728e+00 2.8654018854819713e-01 0.0000000000000000e+00  1.3331493900179039e+01 5.2618249146650664e-01 0.0000000000000000e+00  8.1451161522627416e+01 1.2522549146903287e+01 0.0000000000000000e+00  9.2246050989633460e+01 -8.9327570627243542e+00 0.0000000000000000e+00  3.0670236672695221e+01 -5.3631272115127731e+00 0.0000000000000000e+00  2.8638116573042868e+01 -2.2810254521506237e+00 0.0000000000000000e+00  6.4253016319458752e+01 -8.0532733576529978e+00 0.0000000000000000e+00  7.2540020748673342e+01 -6.9261483055172599e+00 0.0000000000000000e+00  4.1621081039762245e+01 1.2843178606989328e+01 0.0000000000000000e+00  5.1944776990442989e+01 1.3758687783553487e+01 0.0000000000000000e+00  9.2046366936066107e+01 -1.0663490328840247e+01 0.0000000000000000e+00  6.1621753205045856e+01 -1.3340294459595992e+01 0.0000000000000000e+00  6.5723188306720985e+01 -1.0406680806838850e+01 0.0000000000000000e+00  2.2378870818218935e+01 -8.1972161939874493e+00 0.0000000000000000e+00  7.6341558064913329e+01 -7.9449546357957059e+00 0.0000000000000000e+00  5.4702346187015706e+01 1.0841220656151037e+01 0.0000000000000000e+00  6.1598636803300437e+01 -1.1733809338935874e+01 0.0000000000000000e+00  3.7669856981320947e+01 -6.9194260732897819e+00 0.0000000000000000e+00  9.3349261668840811e+01 1.6808185078974707e+00 0.0000000000000000e+00  7.4903311420573502e+01 -5.1797533332930259e+00 0.0000000000000000e+00  9.5026739755266689e+00 1.8882428571523895e+00 0.0000000000000000e+00  3.0514259313781576e+01 -2.6056200588529310e-01 0.0000000000000000e+00  8.3451363923965943e+01 -1.4389056851528410e+00 0.0000000000000000e+00  7.2572547205342929e+01 1.0899735919928026e+00 0.0000000000000000e+00  1.3471466684217532e+01 -6.9143161626705152e-01 0.0000000000000000e+00  1.3579942857473526e+01 -6.5768424099716070e+00 0.0000000000000000e+00  7.7715756344633542e+00 -1.7235819078272305e+00 0.0000000000000000e+00  2.6834368139601825e+01 7.3521816342520534e+00 0.0000000000000000e+00  4.2915667848105414e+01 9.1109374923303097e+00 0.0000000000000000e+00  8.7400620900490765e+01 1.1657023162973974e+00 0.0000000000000000e+00  1.8087166398823012e+01 -5.7137953919932780e+00 0.0000000000000000e+00  2.8898870213705592e+01 -8.9844701007616443e+00 0.0000000000000000e+00  6.1548187966560427e+01 -1.3624139097435726e+00 0.0000000000000000e+00  2.6999246114198485e+01 -7.6784996773083347e-01 0.0000000000000000e+00  6.8706098822221264e+01 9.6541727490110194e+00 0.0000000000000000e+00  6.8841052392523494e+01 -1.1595562482565267e+00 0.0000000000000000e+00  1.9293140479707059e+01 -3.7269493092330253e+00 0.0000000000000000e+00  3.2996559107798909e+01 5.8476887709899135e+00 0.0000000000000000e+00  5.7059865423530148e+01 1.3817926493698645e+01 0.0000000000000000e+00  4.5988543402252333e+01 -1.3619563411432079e+01 0.0000000000000000e+00  5.8435652330284391e+01 -4.4801797682693678e+00 0.0000000000000000e+00  3.7759007442646080e+01 9.1638512398286807e+00 0.0000000000000000e+00  1.3810116943895890e+01 5.8595915719032883e+00 0.0000000000000000e+00  5.0298424133789066e+00 2.0460209239988338e+00 0.0000000000000000e+00  2.1356512246777481e+01 -2.2591799683159710e+00 0.0000000000000000e+00  9.1917243512583866e+00 -4.9340523537348935e-01 0.0000000000000000e+00  2.7442877055470280e+01 9.0097705814961049e-01 0.0000000000000000e+00  8.4830112976011250e+01 8.8155516617538190e+00 0.0000000000000000e+00  7.8683031843172003e+01 -1.0466384900878367e+01 0.0000000000000000e+00  8.2495921734767776e+01 -1.2504735861666058e+01 0.0000000000000000e+00  4.9185042956833094e+01 5.9137422031546274e+00 0.0000000000000000e+00  3.9462059814374662e+01 -1.0968422959639605e+01 0.0000000000000000e+00  9.3292775519346790e+01 -4.3183258960439366e+00 0.0000000000000000e+00  9.8855699771916985e+00 3.8740200643360350e+00 0.0000000000000000e+00  1.2927308775521931e+01 6.4332034594018488e+00 0.0000000000000000e+00  9.3474087441720197e+00 2.5194563057841868e+00 0.0000000000000000e+00  3.2474044640513931e+01 -8.4800824280978517e+00 0.0000000000000000e+00  2.4146502490896808e+01 4.2437099093093495e+00 0.0000000000000000e+00  1.7819931475189875e+01 2.6764552587747974e+00 0.0000000000000000e+00  2.5747218240985436e+01 2.6106751697896655e+00 0.0000000000000000e+00  6.2248765017526736e+01 8.3018731373873922e-01 0.0000000000000000e+00  9.6361767119265984e+00 1.9983309403255622e-01 0.0000000000000000e+00  1.5089840903943971e+01 2.5833929719453187e-02 0.0000000000000000e+00  8.0309142513311457e+01 1.0545535665334411e+01 0.0000000000000000e+00  8.2