<?xml version="1.0"?>
<VTKFile type="UnstructuredGrid"  version="0.1"  >
<UnstructuredGrid>
<Piece  NumberOfPoints="2874" NumberOfCells="10241">
<Points>
<DataArray  type="Float64"  NumberOfComponents="3"  format="ascii">0.0001 0.0001 0  0.0001 0.0001 0.009599999999999999  0.0001 0.0159 0  0.0001 0.0159 0.009599999999999999  0.0799 0.0001 0  0.0799 0.0001 0.009599999999999999  0.0799 0.0159 0  0.0799 0.0159 0.009599999999999999  0.0001 0.00193 0  0.0001 0.003545 0  0.0001 0.00516 0  0.0001 0.007095 0  0.0001 0.008982 0  0.0001 0.010597 0  0.0001 0.012212 0  0.0001 0.013827 0  0.0799 0.0159 0.0064  0.0799 0.0159 0.0032  0.001983 0.0001 0  0.003609 0.0001 0  0.005235 0.0001 0  0.006861 0.0001 0  0.008861000000000001 0.0001 0  0.010704 0.0001 0  0.01233 0.0001 0  0.013956 0.0001 0  0.015911 0.0001 0  0.017799 0.0001 0  0.019425 0.0001 0  0.021051 0.0001 0  0.022676 0.0001 0  0.024672 0.0001 0  0.02652 0.0001 0  0.028146 0.0001 0  0.029771 0.0001 0  0.031918 0.0001 0  0.034224 0.0001 0  0.035864 0.0001 0  0.03749 0.0001 0  0.039261 0.0001 0  0.041316 0.0001 0  0.042959 0.0001 0  0.044585 0.0001 0  0.046311 0.0001 0  0.048366 0.0001 0  0.050054 0.0001 0  0.05168 0.0001 0  0.053404 0.0001 0  0.055459 0.0001 0  0.05745 0.0001 0  0.059075 0.0001 0  0.060701 0.0001 0  0.062551 0.0001 0  0.06501 0.0001 0  0.06679400000000001 0.0001 0  0.06841999999999999 0.0001 0  0.070048 0.0001 0  0.072103 0.0001 0  0.074158 0.0001 0  0.07581499999999999 0.0001 0  0.077484 0.0001 0  0.0001 0.0001 0.002222  0.0001 0.0001 0.004873  0.0001 0.0001 0.007524  0.001976 0.0001 0.009599999999999999  0.003594 0.0001 0.009599999999999999  0.005212 0.0001 0.009599999999999999  0.007111 0.0001 0.009599999999999999  0.009155999999999999 0.0001 0.009599999999999999  0.010958 0.0001 0.009599999999999999  0.012576 0.0001 0.009599999999999999  0.014194 0.0001 0.009599999999999999  0.016421 0.0001 0.009599999999999999  0.018646 0.0001 0.009599999999999999  0.020264 0.0001 0.009599999999999999  0.021882 0.0001 0.009599999999999999  0.023667 0.0001 0.009599999999999999  0.02571 0.0001 0.009599999999999999  0.027328 0.0001 0.009599999999999999  0.028946 0.0001 0.009599999999999999  0.030721 0.0001 0.009599999999999999  0.03317 0.0001 0.009599999999999999  0.035016 0.0001 0.009599999999999999  0.036634 0.0001 0.009599999999999999  0.038252 0.0001 0.009599999999999999  0.040223 0.0001 0.009599999999999999  0.04208 0.0001 0.009599999999999999  0.043698 0.0001 0.009599999999999999  0.045316 0.0001 0.009599999999999999  0.047234 0.0001 0.009599999999999999  0.049279 0.0001 0.009599999999999999  0.051063 0.0001 0.009599999999999999  0.052681 0.0001 0.009599999999999999  0.054299 0.0001 0.009599999999999999  0.056333 0.0001 0.009599999999999999  0.058378 0.0001 0.009599999999999999  0.060045 0.0001 0.009599999999999999  0.061728 0.0001 0.009599999999999999  0.06417299999999999 0.0001 0.009599999999999999  0.06611499999999999 0.0001 0.009599999999999999  0.067733 0.0001 0.009599999999999999  0.069351 0.0001 0.009599999999999999  0.071187 0.0001 0.009599999999999999  0.07317899999999999 0.0001 0.009599999999999999  0.074797 0.0001 0.009599999999999999  0.076415 0.0001 0.009599999999999999  0.07803400000000001 0.0001 0.009599999999999999  0.0001 0.00193 0.009599999999999999  0.0001 0.003545 0.009599999999999999  0.0001 0.00516 0.009599999999999999  0.0001 0.006775 0.009599999999999999  0.0001 0.008750000000000001 0.009599999999999999  0.0001 0.010597 0.009599999999999999  0.0001 0.012212 0.009599999999999999  0.0001 0.013827 0.009599999999999999  0.077583 0.0159 0.009599999999999999  0.07552399999999999 0.0159 0.009599999999999999  0.073465 0.0159 0.009599999999999999  0.071002 0.0159 0.009599999999999999  0.068943 0.0159 0.009599999999999999  0.066884 0.0159 0.009599999999999999  0.064345 0.0159 0.009599999999999999  0.061933 0.0159 0.009599999999999999  0.059874 0.0159 0.009599999999999999  0.057815 0.0159 0.009599999999999999  0.055352 0.0159 0.009599999999999999  0.053293 0.0159 0.009599999999999999  0.051234 0.0159 0.009599999999999999  0.049175 0.0159 0.009599999999999999  0.046712 0.0159 0.009599999999999999  0.044653 0.0159 0.009599999999999999  0.042594 0.0159 0.009599999999999999  0.040068 0.0159 0.009599999999999999  0.037148 0.0159 0.009599999999999999  0.034726 0.0159 0.009599999999999999  0.032462 0.0159 0.009599999999999999  0.030204 0.0159 0.009599999999999999  0.027861 0.0159 0.009599999999999999  0.025253 0.0159 0.009599999999999999  0.02279 0.0159 0.009599999999999999  0.020731 0.0159 0.009599999999999999  0.018672 0.0159 0.009599999999999999  0.016342 0.0159 0.009599999999999999  0.013721 0.0159 0.009599999999999999  0.011662 0.0159 0.009599999999999999  0.009337 0.0159 0.009599999999999999  0.006711 0.0159 0.009599999999999999  0.004652 0.0159 0.009599999999999999  0.002593 0.0159 0.009599999999999999  0.0799 0.013867 0  0.0799 0.012152 0  0.0799 0.010436 0  0.0799 0.008368 0  0.0799 0.005981 0  0.0799 0.004424 0  0.0799 0.002678 0  0.003052 0.0159 0  0.005466 0.0159 0  0.007719 0.0159 0  0.010035 0.0159 0  0.012117 0.0159 0  0.014199 0.0159 0  0.016487 0.0159 0  0.018888 0.0159 0  0.021683 0.0159 0  0.024156 0.0159 0  0.026471 0.0159 0  0.029167 0.0159 0  0.031249 0.0159 0  0.033736 0.0159 0  0.035818 0.0159 0  0.0379 0.0159 0  0.040593 0.0159 0  0.042898 0.0159 0  0.04498 0.0159 0  0.047062 0.0159 0  0.049549 0.0159 0  0.051676 0.0159 0  0.054628 0.0159 0  0.057487 0.0159 0  0.059982 0.0159 0  0.062485 0.0159 0  0.064971 0.0159 0  0.067053 0.0159 0  0.06991600000000001 0.0159 0  0.07231700000000001 0.0159 0  0.074633 0.0159 0  0.07745199999999999 0.0159 0  0.0001 0.0159 0.0032  0.0001 0.0159 0.0064  0.0799 0.013886 0.009599999999999999  0.0799 0.012191 0.009599999999999999  0.0799 0.010495 0.009599999999999999  0.0799 0.008477 0.009599999999999999  0.0799 0.005582 0.009599999999999999  0.0799 0.004063 0.009599999999999999  0.0799 0.002243 0.009599999999999999  0.0799 0.0001 0.00341  0.0799 0.0001 0.006995  0.076 0.0145 0.0113  0.074847 0.014218 0.0113  0.07395 0.013431 0.0113  0.073518 0.012303 0.0113  0.07366 0.011119 0.0113  0.074333 0.010137 0.0113  0.075388 0.009575999999999999 0.0113  0.076581 0.009568 0.0113  0.07765 0.010122 0.0113  0.078336 0.011109 0.0113  0.078483 0.012292 0.0113  0.078065 0.013409 0.0113  0.077186 0.014201 0.0113  0.076 0.0145 0  0.077165 0.014212 0  0.07804899999999999 0.013432 0  0.07847999999999999 0.012316 0  0.078343 0.011129 0  0.077669 0.010139 0  0.07663 0.009580999999999999 0  0.075433 0.009565000000000001 0  0.074369 0.010105 0  0.073675 0.011081 0  0.073514 0.01226 0  0.07393 0.013402 0  0.074818 0.014203 0  0.07049999999999999 0.012 0.009599999999999999  0.070218 0.013154 0.009599999999999999  0.069435 0.014047 0.009599999999999999  0.068318 0.01448 0.009599999999999999  0.067137 0.014347 0.009599999999999999  0.066138 0.013668 0.009599999999999999  0.065577 0.012615 0.009599999999999999  0.065567 0.011424 0.009599999999999999  0.06612700000000001 0.010344 0.009599999999999999  0.06712700000000001 0.009657000000000001 0.009599999999999999  0.06830700000000001 0.009519 0.009599999999999999  0.06941700000000001 0.009939999999999999 0.009599999999999999  0.070203 0.010818 0.009599999999999999  0.0785 0.004 0.009599999999999999  0.078218 0.005153 0.009599999999999999  0.07741000000000001 0.006064 0.009599999999999999  0.07628799999999999 0.006483 0.009599999999999999  0.075111 0.006336 0.009599999999999999  0.074114 0.005641 0.009599999999999999  0.073569 0.004583 0.009599999999999999  0.073574 0.003396 0.009599999999999999  0.074147 0.002321 0.009599999999999999  0.075125 0.001658 0.009599999999999999  0.076336 0.001523 0.009599999999999999  0.077436 0.001954 0.009599999999999999  0.07821500000000001 0.002841 0.009599999999999999  0.0785 0.004 0.0113  0.07821599999999999 0.002843 0.0113  0.077431 0.00195 0.0113  0.076321 0.001521 0.0113  0.075138 0.001653 0.0113  0.074129 0.002341 0.0113  0.073569 0.003415 0.0113  0.073574 0.004605 0.0113  0.074129 0.005658 0.0113  0.07510799999999999 0.006335 0.0113  0.076289 0.006483 0.0113  0.077413 0.006062 0.0113  0.07821699999999999 0.005156 0.0113  0.068 0.0145 0  0.069159 0.014215 0  0.070051 0.01343 0  0.070481 0.012311 0  0.070342 0.011126 0  0.069671 0.010141 0  0.06862799999999999 0.00958 0  0.06743200000000001 0.009565000000000001 0  0.066357 0.010116 0  0.06566900000000001 0.011096 0  0.065516 0.012279 0  0.065931 0.013404 0  0.066813 0.0142 0  0.076 0.0095 0.009599999999999999  0.074849 0.009781 0.009599999999999999  0.07395699999999999 0.01056 0.009599999999999999  0.073521 0.011678 0.009599999999999999  0.073653 0.01286 0.009599999999999999  0.074324 0.013855 0.009599999999999999  0.075382 0.014422 0.009599999999999999  0.076571 0.014434 0.009599999999999999  0.07764799999999999 0.01388 0.009599999999999999  0.07834199999999999 0.012875 0.009599999999999999  0.078482 0.011699 0.009599999999999999  0.07806200000000001 0.010586 0.009599999999999999  0.077184 0.009797999999999999 0.009599999999999999  0.06 0.0145 0.0113  0.061156 0.014217 0.0113  0.06205 0.013431 0.0113  0.062481 0.012309 0.0113  0.062343 0.011127 0.0113  0.061674 0.010143 0.0113  0.060624 0.009579000000000001 0.0113  0.059433 0.009565000000000001 0.0113  0.058347 0.010124 0.0113  0.057659 0.011121 0.0113  0.057519 0.012304 0.0113  0.05794 0.013417 0.0113  0.058815 0.014201 0.0113  0.07049999999999999 0.004 0.0113  0.070215 0.005159 0.0113  0.069422 0.006056 0.0113  0.068301 0.006482 0.0113  0.067117 0.006339 0.0113  0.06612899999999999 0.005658 0.0113  0.06557 0.004586 0.0113  0.06557399999999999 0.003397 0.0113  0.066132 0.002338 0.0113  0.067116 0.001661 0.0113  0.068327 0.001521 0.0113  0.069434 0.001952 0.0113  0.070212 0.002836 0.0113  0.07049999999999999 0.004 0.009599999999999999  0.070215 0.00284 0.009599999999999999  0.069437 0.001955 0.009599999999999999  0.068326 0.001521 0.009599999999999999  0.067139 0.001653 0.009599999999999999  0.06612800000000001 0.002343 0.00959999999999999
[...]
<PointData  Scalars="von_Mises stress"> 
<DataArray  type="Float64"  Name="von_Mises stress"  format="ascii">3.3424924872644588e+04  3.1258652944343201e+04  3.2960366022442613e+04  3.3014101514016831e+04  2.6740315124131830e+03  1.9099363402689894e+03  3.6060770427626665e+02  3.0177771217230185e+02  4.1719918926915241e+04  3.4654676824950606e+04  3.0722003208957452e+04  3.4731082026508055e+04  3.3354574537079730e+04  3.5040761495359038e+04  2.9124244303158306e+04  3.6135875570498167e+04  4.2723752029665764e+02  4.6017874663397924e+02  3.9220325119907320e+04  4.8977780085928716e+04  4.5220062549196758e+04  4.4022120807794621e+04  4.3656889729293420e+04  4.2715597860702524e+04  4.1183584658703890e+04  4.1197520412886333e+04  3.9335453270591323e+04  3.8119143819664270e+04  3.9274846087643346e+04  3.2678681765118392e+04  3.2658166302512105e+04  2.9919085900008369e+04  2.7976580265570603e+04  2.8065331818492625e+04  2.5300391438374430e+04  2.5061986885664021e+04  2.3446155544456011e+04  2.3292679195802466e+04  2.0011078955445031e+04  1.9068451780642350e+04  1.9261435834271189e+04  1.5957502647390122e+04  1.6271827066971387e+04  1.3506192323509740e+04  1.1786222041136914e+04  1.1290443790061021e+04  1.0201053559320670e+04  9.7577047859851682e+03  9.2921853616539138e+03  8.6721352152842974e+03  7.6177950563551794e+03  6.8294670915758115e+03  5.6389986276337868e+03  5.0068164277437336e+03  4.1852970668188855e+03  4.0648802901073173e+03  3.3024241173603946e+03  3.1155215135086446e+03  2.8934044835415934e+03  4.0035840729314264e+03  4.4575769920719604e+03  3.5635831697862035e+04  2.5080501386319931e+04  2.9737364746699808e+04  4.0741509989601793e+04  4.7683367598108278e+04  4.9248719988909754e+04  4.8988224015211919e+04  3.7222750639055172e+04  4.1085105025304809e+04  3.9641495968415686e+04  4.3361908748866801e+04  3.6894675482045845e+04  3.3082864642407760e+04  3.3854708658864147e+04  2.7509867578823978e+04  2.9184486247988796e+04  3.0450281675341506e+04  2.7959847838668305e+04  2.6056315659867698e+04  2.3625010961269629e+04  2.5205825373014810e+04  1.9446300750440794e+04  1.9927543034097765e+04  2.0435875495320484e+04  1.7146599256994068e+04  1.5032440986807334e+04  1.4740793470854442e+04  1.2539219672950407e+04  1.6059877211008279e+04  1.3795453083057790e+04  1.0424605303145614e+04  1.0041266730200341e+04  9.2725426946449297e+03  8.1113658655456311e+03  7.7464139594640892e+03  6.9768303690016346e+03  6.4447749833950438e+03  6.0797225876092234e+03  4.6992015118277486e+03  4.3815627936919400e+03  3.0201124417204692e+03  3.5440630691735155e+03  3.5186943889093118e+03  2.6378956119910695e+03  2.3681937277278707e+03  3.6451671443882192e+03  3.8872569156115547e+04  2.8288175075538944e+04  2.5490506737886677e+04  2.7787609862638928e+04  3.0594961988838528e+04  2.7133325664220214e+04  3.2967636949380765e+04  3.2074880987708057e+04  4.9000743502942436e+02  6.8517363414118199e+02  1.2988573393413185e+03  2.2834568259018270e+03  2.5417168095732641e+03  2.8999267399439227e+03  4.0780068430647475e+03  4.5939813631308425e+03  5.7857973793842002e+03  6.5765354148431798e+03  7.9151231359706026e+03  8.9943506733464001e+03  9.8698215489582344e+03  1.1361317810704924e+04  1.1400197825491610e+04  1.2225125787009703e+04  1.3267176283098461e+04  1.4383545991083685e+04  1.6981607336097448e+04  1.8402588790762438e+04  2.2786334038079029e+04  2.3151339415535520e+04  2.6714852145746423e+04  2.9201686670760690e+04  2.7107171236977851e+04  2.8849881292300619e+04  3.4941399957040456e+04  3.6968854854134144e+04  3.4615987156966949e+04  3.5565640245913142e+04  4.2718396841488233e+04  4.3391077022993442e+04  4.1219696954639978e+04  4.3774080475396440e+04  3.4656369657090272e+02  5.7670054461364316e+02  8.5595810424123169e+02  1.2620568292425501e+03  1.5411699571660815e+03  2.7922684191780604e+03  4.2241215164703717e+03  3.5647974205081431e+04  3.9706191470168829e+04  4.2748413233050087e+04  3.8741196862485325e+04  4.1742878835204137e+04  3.4675089853205034e+04  3.2649113835737902e+04  3.3187320474416345e+04  3.1506090339558661e+04  2.8422802686257699e+04  2.7335520951773171e+04  2.3968024123895295e+04  2.2037324702773280e+04  2.1188650892617137e+04  1.9760123095598294e+04  1.5351297382449573e+04  1.8438889975747647e+04  1.4941681468774394e+04  1.2326562320318773e+04  1.1367095224721657e+04  9.3012734901455824e+03  9.9626270165380392e+03  8.2435910325100213e+03  6.7000065144291048e+03  5.9092890063022032e+03  4.4175030623966040e+03  3.7517122616240690e+03  3.1316237062841114e+03  2.3869073584036682e+03  1.7733936103034498e+03  1.0555494454884924e+03  5.1130960520707032e+02  3.1383139317023964e+04  2.2816713749818762e+04  4.5922811582133210e+02  5.3446868421539352e+02  8.7553055692361613e+02  1.5129847801642627e+03  1.6139590561485336e+03  1.8769309346211021e+03  3.6827590976329866e+03  4.1544872812984795e+03  3.7070340882611385e+03  7.1594276990023957e+02  1.0167305446959064e+03  1.2616163852605684e+03  1.3858218532040962e+03  1.2348971505638904e+03  1.3444765843697828e+03  1.6273743471672285e+03  1.2714992449869362e+03  1.1457803587532298e+03  8.8814480999646605e+02  6.7054407018245422e+02  6.3024972397674719e+02  6.1131658423154727e+02  8.8732874776024835e+02  5.8595273061163482e+02  4.1418160366970659e+02  7.0523387463581435e+02  9.1283909644174901e+02  1.2902794236464974e+03  1.4401450313649862e+03  1.5639422504159295e+03  1.8140696527106420e+03  1.5444022665673522e+03  1.7694816257246928e+03  1.4388667090090489e+03  1.1986274188464467e+03  2.0894817220895552e+03  2.4326971721574619e+03  2.0366863654701931e+03  2.5770553593087957e+03  2.7950167996293167e+03  2.8064326952654719e+03  2.9751261590012664e+03  3.2550863996367989e+03  3.0772610076017977e+03  3.0950568176099000e+03  2.7952863821518804e+03  2.8830180162623719e+03  2.6405419906249654e+03  2.1507235981352060e+03  1.7811407622909851e+03  1.7269650119304868e+03  1.7993421579552739e+03  1.8093099288035326e+03  2.1239611463234328e+03  1.9857534938057395e+03  2.2217349445041564e+03  2.4615099857714617e+03  2.1123829080782307e+03  2.4985322438416651e+03  1.7652970601287698e+03  2.6454978951379926e+03  1.9474704163116194e+03  2.3913799685416052e+03  2.1330104805498895e+03  2.2737797981731951e+03  2.5290232641536768e+03  2.1019664775959959e+03  2.1083387776917011e+03  2.2258392390905956e+03  2.1171726016822722e+03  1.7272366143505412e+03  1.9374657998969685e+03  1.7358110780761986e+03  1.9194785813440897e+03  3.0272421878716646e+03  2.5804802091767774e+03  2.8448718562167260e+03  3.1683523830249947e+03  3.0276954530960998e+03  3.4287442270143388e+03  3.0819626168030686e+03  3.9830834885492968e+03  4.1750859073981301e+03  4.1925591315518186e+03  4.0217159840909367e+03  4.2969311809087321e+03  3.6244517345955073e+03  1.2676062221600405e+03  1.3691399842682711e+03  1.1724557175892473e+03  1.3265612907258751e+03  1.3358843420570142e+03  8.8956196137481538e+02  8.0278458449556240e+02  5.4216136374791529e+02  4.7280797978169460e+02  6.3041751210921814e+02  7.3228442794025000e+02  9.4956183785146106e+02  1.1734789688635019e+03  5.9781193719950325e+03  5.5268619913103012e+03  5.1171045373384286e+03  5.8465525442461203e+03  5.6569792174547756e+03  5.5351098882859442e+03  6.4159062315844421e+03  6.1604125156648834e+03  6.8076841559059067e+03  7.2256646936934731e+03  6.8815210570756371e+03  6.5129279889033378e+03  5.6512961699364814e+03  3.3620628567337212e+03  2.9566536118873796e+03  3.4322369696723877e+03  3.1443060038779381e+03  3.3568580222632700e+03  4.3167272441565729e+03  3.4542872950671349e+03  3.4587965846797624e+03  3.8023414030469821e+03  2.9354538899219724e+03  3.3746944337051013e+03  3.3687753520016040e+03  3.0761915051957571e+03  2.7843474324212571e+03  3.1349480025568760e+03  3.7834553625168046e+03  3.9164872635196652e+03  3.6910520783102534e+03  4.6054294429366046e+03  3.3090314266962359e+03  4.0715213319059449e+03  3.8754481713372707e+03  3.1808747072357578e+03  3.0351331350114979e+03  2.7979785949244979e+03  2.8008655393403856e+03  4.4122313610237916e+03  4.6695595077577900e+03  5.1874387278795921e+03  5.0562254381156308e+03  6.2834704515171552e+03  6.1312185444356883e+03  6.1033676424723508e+03  6.4749896044845073e+03  5.0411057596726168e+03  5.5689859486134746e+03  4.5619309846122196e+03  4.8706631653456989e+03  4.8387229367681275e+03  2.4602441212338581e+03  2.9115856335469380e+03  3.1400274275945771e+03  2.9830504227384486e+03  3.3172245495381731e+03  3.4259066328898002e+03  3.4237801151552849e+03  3.8878867215947444e+03  3.7007159145847772e+03  2.9602569055421036e+03  3.1979535536972353e+03  2.6937739362377451e+03  2.8835568473496332e+03  6.5019042307560603e+03  6.0002768084654072e+03  5.2881431455488091e+03  5.9048525501471304e+03  5.9977592307675104e+03  6.0813765350465110e+03  6.2510348950373254e+03  6.8525144897851342e+03  7.8431857608350592e+03  7.3937353541848606e+03  7.7314210399438289e+03  7.7304002511552553e+03  6.0289521088462870e+03  7.7636975991638919e+03  9.1880192805649167e+03  9.7939666837578225e+03  8.7315169242996944e+03  9.9345407487102748e+03  9.6241308476600188e+03  8.8024499664722789e+03  1.1397986682517658e+04  9.1937047965619022e+03  8.3821041010217614e+03  1.0015126137810850e+04  8.8784575291104757e+03  9.6067033613454169e+03  7.6889384827830554e+03  8.1076730426908935e+03  8.1498383191395869e+03  6.4046191960821670e+03  8.6775711946673564e+03  9.2128717930222283e+03  9.9189745687724026e+03  9.5733314105846239e+03  8.2356800104120484e+03  8.2971029474838288e+03  8.0089925493405990e+03  8.1149045796943110e+03  7.3492361319215524e+03  3.4986014562210607e+03  3.4341926178175668e+03  4.0048029058749762e+03  3.9559010994774649e+03  4.5371393620226272e+03  5.0795426289418374e+03  5.0756700032331264e+03  4.6779214983429620e+03  4.3800188535083098e+03  4.7389148053671452e+03  3.5346470635951500e+03  4.0563715483512256e+03  2.6612978630787898e+03  1.2423778297946585e+04  1.2955525251217685e+04  1.0502592510943763e+04  1.3733111961759887e+04  1.2815977422954606e+04  1.1423806366942230e+04  1.3940831711930661e+04  1.2796624584417335e+04  1.3593488694770796e+04  1.6014830951271735e+04  1.5186432968756204e+04  1.4065773166527888e+04  1.1605553390555484e+04  5.9808798309814738e+03  5.6924797745717087e+03  5.5142110627089141e+03  6.0615561412780771e+03  5.7170503010790835e+03  6.5557306422526135e+03  6.0726395140689765e+03  6.6707090844784580e+03  7.5238023507094749e+03  7.4950690840108628e+03  7.7946674229323989e+03  7.0326105652277447e+03  6.3068847712962115e+03  1.0334425213192000e+04  1.1677418143377683e+04  1.1089943103959924e+04  1.1825107730448814e+04  1.2572278078421361e+04  1.1923417445735120e+04  1.3355796900514253e+04  1.3470235374917285e+04  1.0958569802899578e+04  1.1685118311093531e+04  1.2236668270296506e+04  1.0890179162179624e+04  9.8535259106776157e+03  4.4308083175416168e+03  4.4381592955853794e+03  5.3654118135122571e+03  3.7897267627013348e+03  2.0015027174303466e+03  1.9201508043518522e+03  1.8130623163582723e+03  2.0752757358845079e+03  2.6405849753948924e+03  2.6084290583480511e+03  2.5098547843808446e+03  2.6488680186272391e+03  2.6311680230403890e+03  6.0183349892399319e+03  5.7665763946801990e+03  5.2344485623089995e+03  5.4565599978928676e+03  5.0229957642225791e+03  5.6120270230709430e+03  5.3484588338714912e+03  5.3666976507138743e+03  6.8930576016402065e+03  6.3088839483304519e+03  7.4314419071045295e+03  5.8411258785793279e+03  7.5870218916468211e+03  5.9143340311063348e+03  5.9692896477237218e+03  6.6145723330060591e+03  6.1465277878974930e+03  7.4529294363398985e+03  7.8168868549863728e+03  8.6341969573340029e+03  7.9541216364871234e+03  7.8541263235415790e+03  7.3422043703183399e+03  6.8895110598511183e+03  5.8305612955600245e+03  6.0841662968875135e+03  8.7440936004867963e+03  8.2395697417010797e+03  9.1179229246211580e+03  9.3369833224850645e+03  1.0173792837067072e+04  1.0025361504786972e+04  7.7267989486740162e+03  1.1295106085834444e+04  1.0875090936745841e+04  1.1829882371649965e+04  1.0482252394773748e+04  9.8138226939271317e+03  1.0682763613928095e+04  1.6749893330258583e+04  1.5161834335675847e+04  1.5760687072052382e+04  1.4912616133855676e+04  1.6546308394782714e+04  1.5708455593246968e+04  1.6398228327075340e+04  1.7173910836263312e+04  1.6408743277174111e+04  1.7484584327237731e+04  1.7626839406518484e+04  1.7720794154183066e+04  1.4431952264865038e+04  1.0762688051154664e+04  9.9416080730486356e+03  8.4950415748660216e+03  9.3878895971812854e+03  1.0271589826152225e+04  8.8969091777738522e+03  1.0243172161650691e+04  8.0975489386288255e+03  7.8818356792928034e+03  8.9673725546295482e+03  1.0340826177008927e+04  9.8056470237384638e+03  1.1123581459896994e+04  1.3229201994655205e+04  1.3536286034190734e+04  1.5304454775090464e+04  1.6861853097857747e+04  1.3699679163526080e+04  1.4390925379914033e+04  1.4945695827237900e+04  1.2799497061916942e+04  1.4096463328261749e+04  1.4828846322495381e+04  1.3147416782527223e+04  1.3683230275204141e+04  1.3958099041937026e+04  9.5277120983421300e+03  8.1395760317654622e+03  8.6849503404958414e+03  8.1391346111528082e+03  7.6389594342038517e+03  8.2104063963106364e+03  7.2360862376981549e+03  9.5311826711436261e+03  8.8057214927855930e+03  1.0389223683264774e+04  1.0350650033408549e+04  9.7175596195001872e+03  9.8367947569207008e+03  1.0081628699282317e+04  1.0332634458222208e+04  9.5155035755562967e+03  1.0436255015355278e+04  1.1229004489109584e+04  1.1661128252423965e+04  1.2187761250017769e+04  1.2192463673717177e+04  1.1631403922813246e+04  1.1687333862033636e+04  8.7447550224360803e+03  9.9456664437922627e+03  8.9442371031110342e+03  1.9249272566246567e+04  1.9576337288082501e+04  1.9139092415275074e+04  2.2126564062696230e+04  1.9089228713172615e+04  2.0272649193649086e+04  1.9494551369268174e+04  1.7750799432471391e+04  1.9096521702984912e+04  1.9545430389604287e+04  1.8306375866017192e+04  1.9742760403309047e+04  1.8473667509603274e+04  2.2980931025221369e+04  2.2379703747090349e+04  2.4091756149966084e+04  2.2801937259700582e+04  2.5554528306312772e+04  2.2970281965364520e+04  2.5043569487762579e+04  2.2308639763230261e+04  2.2821986416705076e+04  2.4037512342392954e+04  2.4447150435986176e+04  2.0767845392659168e+04  2.0009459526444774e+04  2.5129524369632469e+04  2.2871446385555209e+04  2.1525445818468550e+04  2.5354256019504948e+04  2.4246215662178223e+04  2.4548597369695937e+04  2.4481611382608866e+04  2.5783343484947811e+04  2.6458801876907033e+04  2.9949191155247983e+04  2.8096776416048306e+04  2.6049352886663863e+04  2.6669419704421736e+04  1.3097735896512471e+04  1.1808487469765880e+04  1.4250674132850274e+04  1.3812176539370130e+04  1.2673024041667983e+04  1.2956858843270902e+04  1.1320124954973919e+04  1.2118546805266014e+04  1.2224583749606754e+04  1.1507235485307707e+04  1.1334635497697476e+04  1.1504123545842491e+04  1.1391379733220299e+04  1.6963947135046539e+04  1.3589619621300531e+04  1.7549686144575291e+04  1.7360885596160548e+04  2.0274475464488329e+04  2.0867342373149975e+04  2.0816993292080937e+04  2.1268284729946979e+04  1.7908784746852056e+04  1.9319155597905152e+04  1.9173568788809302e+04  1.8168358414674934e+04  1.5066394168535138e+04  1.4528605500086580e+04  1.4060299776116917e+04  1.3155277156190341e+04  1.4876354121727814e+04  1.5654522295623881e+04  1.6858329199821404e+04  1.7420906597065910e+04  1.7167087976577361e+04  1.4355249879506358e+04  1.5091726012127567e+04  1.2851976042626949e+04  1.2587218883596997e+04  1.5793969996309166e+04  1.2745351215841676e+04  1.3427544510021462e+04  1.3690737294195551e+04  1.3465620018449297e+04  1.4424254780848953e+04  1.6385301892330957e+04  1.6737355842460303e+04  1.5725877994744864e+04  1.8600743489333596e+04  1.4507749423509509e+04  1.2958675323475427e+04  1.2144899195780523e+04  1.2947748201007666e+04  2.4907318556501530e+04  2.8174271194425692e+04  3.2188554641169256e+04  3.2718606692871552e+04  2.9033340919369210e+04  3.0412759466358690e+04  2.4764984398546338e+04  3.0231941760469806e+04  2.7399939011440449e+04  2.5925447779829916e+04  2.3469665776922589e+04  2.7193144915188983e+04  2.1920887752804407e+04  1.5970145638567488e+04  1.6163096289007299e+04  1.6809707653741567e+04  1.5528906590434190e+04  1.8674284015954439e+04  1.7247674146262791e+04  1.8185524144080373e+04  1.8655879667190973e+04  1.6288634081379872e+04  1.7219577399794045e+04  1.7156756517156264e+04  1.5566976764188765e+04  1.6616292758803789e+04  2.2235555685914780e+04  2.1639242879543170e+04  2.2872226201304209e+04  1.9647281702211250e+04  1.8555534275572620e+04  1.6402174287450431e+04  1.7968214451609227e+04  1.6143945334363023e+04  1.4878024334195919e+04  1.6533200856105883e+04  1.6657066044641335e+04  2.1650510546936679e+04  2.1345066585085337e+04  2.7157572925284192e+04  2.4060147783586075e+04  2.7080505462705456e+04  2.4591083550683215e+04  2.3503150919325049e+04  2.5604272332472574e+04  2.8053706113503213e+04  2.8497176673483831e+04  2.4160240430907539e+04  2.5497332815752357e+04  2.7919454562578740e+04  2.4404856328719932e+04  2.6348182026639533e+04  2.0047036042353073e+04  1.8214039749070009e+04  1.9105738178672374e+04  2.1328605865195634e+04  2.1503768714396971e+04  2.0889909601304633e+04  2.0871961142974182e+04  2.1462641552423407e+04  2.3451513087001495e+04  1.8204011520153254e+04  2.0902926041593240e+04  2.0082608070229056e+04  2.0145919042963687e+04  3.2059740122951524e+04  2.9171025623964706e+04  2.9612511816916915e+04  3.6271469300580851e+04  3.5283434881037159e+04  3.1148020813419113e+04  3.5744828921527289e+04  3.0647412703939852e+04  3.1323651394749118e+04  3.4515255697317771e+04  3.2625887091747281e+04  3.2315060710371406e+04  3.3711871347698798e+04  2.4918309594091803e+04  2.8612504490853407e+04  2.8326657788510143e+04  2.6629381088080027e+04  2.6000566244892354e+04  2.8066160515830969e+04  2.8656873255206676e+04  2.5849985832107519e+04  3.2236234288477048e+04  3.1038093866114901e+04  3.2618171146985187e+04  3.0896753600070933e+04  3.0749957619565201e+04  3.1361975799764081e+04  3.1369572239721307e+04  3.2583559189395128e+04  3.5256664854704351e+04  3.5601114870141573e+04  3.2211977826907914e+04  3.4149200656308138e+04  3.0894510795226703e+04  3.4331346111390965e+04  3.9642856382480728e+04  3.8852192137945414e+04  3.4021635857599358e+04  3.5830879010124852e+04  2.3874877095214135e+04  2.4823739938341067e+04  2.1385393072433933e+04  2.0323750221671402e+04  2.3045089249986955e+04  2.1807515833910857e+04  2.3463104524986149e+04  2.1477031955968254e+04  2.2066817853030268e+04  2.2634182367371890e+04  2.1976107224025101e+04  2.4744564080805078e+04  2.4286399852929553e+04  2.9105110693823262e+04  3.0984350574771684e+04  2.8698579410741535e+04  2.7585768834429837e+04  2.6666152509328047e+04  2.7744733601098615e+04  2.9922046788862037e+04  2.5842724383789333e+04  2.9408439594513162e+04  2.8201802249216740e+04  3.2151235002788089e+04  2.9855274010315221e+04  2.9685565742198691e+04  2.6920473866351083e+04  2.6927843123411432e+04  2.7812338600104016e+04  2.7451757044943010e+04  2.7256822694104350e+04  3.1885986581871224e+04  3.0549662769149614e+04  3.2709789329026818e+04  2.9800849432490693e+04  3.1859489982999683e+04  2.6776401820569223e+04  2.5771226253325196e+04  2.7688597457682852e+04  3.7152819985674934e+04  3.4668192889964193e+04  3.6314771969091700e+04  4.5442175174323369e+04  4.4750583336740732e+04  3.6274212548223186e+04  5.0912218075820907e+04  3.3179805269954602e+04  3.8159956948951352e+04  4.0715183653188848e+04  3.8262760570443810e+04  3.8213280794564736e+04  4.0047233508925900e+04  3.5855492520020722e+04  3.0213651063005262e+04  3.4088523409419744e+04  3.2974035071060898e+04  3.3069041059479488e+04  3.3854834137533617e+04  2.8443027873612227e+04  3.2203708634268016e+04  3.4426285317514252e+04  4.0915949418574106e+04  3.8634259618138065e+04  3.6182624449794901e+04  3.4473351012214909e+04  3.0981102587456007e+04  3.6126766448308219e+04  3.8217746763881318e+04  3.2028860296298139e+04  3.1795651578958139e+04  2.9161307158328276e